                         Program Version 5.0  -  CURRENT   -
|  1> ! def2-TZVP def2-TZVP/C moread
|  2>
|  3> %moinp "cas_2_2.gbw"
|  4>
|  5> %maxcore 12000
|  6>
|  7> %pal
|  8>   nprocs 24
|  9> end
| 10>
| 11> %casscf
| 12>   nel 12
| 13>   norb 60
| 14>   mult 3,1
| 15>   nroots 1,3
| 16>   maxiter 1
| 17>   cistep ice
| 18>   ci
| 19>     icetype csfs
| 20>     tgen 1e-4
| 21>     tvar 1e-10
| 22>     csfciwithri 0
| 23>     cibufferlength 10000000
| 24>   end
| 25>   refs
| 26>     {2 2 2 2 2 1 1}
| 27>   end
| 28>   refs
| 29>     {2 2 2 2 2 2 0}
| 30>     {2 2 2 2 2 0 2}
| 31>     {2 2 2 2 2 1 -1}
| 32>   end
| 33>   rel
| 34>     dosoc true
| 35>     dossc true
| 36>   end
| 37> end
| 38>
| 39> *xyz 0 3
| 40> O 0.0 0.0 0.0
| 41> O 0.0 0.0 1.2058
| 42> *
| 43>
| 44>                          ****END OF INPUT****

CARTESIAN COORDINATES (ANGSTROEM)
---------------------------------
  O      0.000000    0.000000    0.000000
  O      0.000000    0.000000    1.205800

 Total Charge           Charge          ....    0
 Multiplicity           Mult            ....    3
 Number of Electrons    NEL             ....   16
 Basis Dimension        Dim             ....   62

ORBITAL ENERGIES
----------------

  NO   OCC          E(Eh)            E(eV)
   0   2.0000     -20.706335      -563.4480
   1   2.0000     -20.705415      -563.4230
   2   1.9799      -1.639478       -44.6125
   3   1.9720      -1.085897       -29.5488
   4   1.9487      -0.718661       -19.5558
   5   1.9338      -0.691067       -18.8049
   6   1.9338      -0.691071       -18.8050
   7   1.0305      -0.214191        -5.8284
   8   1.0305      -0.214176        -5.8280
   9   0.0160       0.351979         9.5778
  10   0.0085       0.476616        12.9694
  11   0.0095       0.532851        14.4996
  12   0.0095       0.532853        14.4997
  13   0.0030       0.574081        15.6215
  14   0.0062       0.643367        17.5069
  15   0.0062       0.643372        17.5071
  16   0.0334       0.664003        18.0684
  17   0.0035       0.907978        24.7073
  18   0.0055       1.470103        40.0035
  19   0.0055       1.470108        40.0037
  20   0.0072       1.563245        42.5380
  21   0.0072       1.563245        42.5380
  22   0.0035       1.903430        51.7950
  23   0.0035       1.903433        51.7950
  24   0.0033       2.110747        57.4364
  25   0.0023       2.408987        65.5519
  26   0.0023       2.408990        65.5519
  27   0.0029       2.440074        66.3978
  28   0.0037       2.806097        76.3578
  29   0.0037       2.806104        76.3580
  30   0.0033       2.871335        78.1330
  31   0.0026       3.104183        84.4691
  32   0.0021       3.148822        85.6838
  33   0.0021       3.148831        85.6841
  34   0.0019       3.295188        89.6666
  35   0.0005       4.644546       126.3845
  36   0.0005       4.991646       135.8296
  37   0.0005       4.991646       135.8296
  38   0.0006       5.041256       137.1795
  39   0.0006       5.041255       137.1795
  40   0.0004       5.338616       145.2711
  41   0.0004       5.338616       145.2711
  42   0.0009       5.436770       147.9420
  43   0.0003       5.590207       152.1173
  44   0.0003       5.590207       152.1173
  45   0.0003       6.144783       167.2081
  46   0.0003       6.144784       167.2081
  47   0.0008       6.551800       178.2835
  48   0.0008       6.551802       178.2836
  49   0.0007       6.762071       184.0053
  50   0.0007       6.762072       184.0053
  51   0.0007       6.794953       184.9001
  52   0.0006       6.794955       184.9001
  53   0.0006       6.847015       186.3167
  54   0.0006       6.906631       187.9390
  55   0.0006       6.906631       187.9390
  56   0.0001       7.672035       208.7667
  57   0.0001       7.672038       208.7668
  58   0.0003       7.950130       216.3340
  59   0.0001       9.149083       248.9592
  60   0.0000      44.516020      1211.3425
  61   0.0000      45.054451      1225.9939

MULLIKEN ATOMIC CHARGES AND SPIN DENSITIES
------------------------------------------
   0 O :   -0.000000    0.500000
   1 O :   -0.000000    0.500000
Sum of atomic charges       :   -0.0000000

LOEWDIN ATOMIC CHARGES AND SPIN DENSITIES
-----------------------------------------
   0 O :   -0.000000    0.500000
   1 O :   -0.000000    0.500000

  Mayer bond orders larger than 0.100000
B(  0-O ,  1-O ) :   1.2721

FINAL SINGLE POINT ENERGY      -150.102216615710

DIPOLE MOMENT
-------------
                                X             Y             Z
Electronic contribution:     -0.00000      -0.00000      -0.00000
Nuclear contribution   :      0.00000       0.00000       0.00000
                        -----------------------------------------
Total Dipole Moment    :     -0.00000      -0.00000      -0.00000
                        -----------------------------------------
Magnitude (a.u.)       :      0.00000
Magnitude (Debye)      :      0.00000

Rotational constants in cm-1:     0.000000     1.449384     1.449384
Rotational constants in MHz :     0.000000 43451.442843 43451.442843

                             ****ORCA TERMINATED NORMALLY****
TOTAL RUN TIME: 4 days 9 hours 7 minutes 52 seconds 73 msec
