                         Program Version 5.0  -  CURRENT   -
|  1> ! def2-TZVP def2-TZVP/C moread
|  2>
|  3> %moinp "cas_2_2.gbw"
|  4>
|  5> %maxcore 3000
|  6>
|  7> %pal
|  8>   nprocs 8
|  9> end
| 10>
| 11> %casscf
| 12>   nel 12
| 13>   norb 12
| 14>   mult 3,1
| 15>   nroots 1,3
| 16>   maxiter 1
| 17>   cistep ice
| 18>   ci
| 19>     icetype csfs
| 20>     tgen 1e-4
| 21>     tvar 1e-10
| 22>     csfciwithri 0
| 23>     cibufferlength 10000000
| 24>   end
| 25>   refs
| 26>     {2 2 2 2 2 1 1}
| 27>   end
| 28>   refs
| 29>     {2 2 2 2 2 2 0}
| 30>     {2 2 2 2 2 0 2}
| 31>     {2 2 2 2 2 1 -1}
| 32>   end
| 33>   rel
| 34>     dosoc true
| 35>     dossc true
| 36>     ssc_unequalmult true
| 37>   end
| 38> end
| 39>
| 40> *xyz 0 3
| 41> O 0.0 0.0 0.0
| 42> O 0.0 0.0 1.2058
| 43> *
| 44>
| 45>                          ****END OF INPUT****

CARTESIAN COORDINATES (ANGSTROEM)
---------------------------------
  O      0.000000    0.000000    0.000000
  O      0.000000    0.000000    1.205800

 Total Charge           Charge          ....    0
 Multiplicity           Mult            ....    3
 Number of Electrons    NEL             ....   16
 Basis Dimension        Dim             ....   62

ORBITAL ENERGIES
----------------

  NO   OCC          E(Eh)            E(eV)
   0   2.0000     -20.756338      -564.8087
   1   2.0000     -20.755420      -564.7837
   2   1.9961      -1.667425       -45.3729
   3   1.9921      -1.109479       -30.1905
   4   1.9915      -0.746971       -20.3261
   5   1.9419      -0.710085       -19.3224
   6   1.9419      -0.710085       -19.3224
   7   1.0512      -0.235735        -6.4147
   8   1.0512      -0.235735        -6.4147
   9   0.0100       0.348737         9.4896
  10   0.0062       0.472552        12.8588
  11   0.0079       0.528493        14.3810
  12   0.0079       0.528493        14.3810
  13   0.0022       0.570777        15.5316
  14   0.0000       0.640615        17.4320
  15   0.0000       0.640615        17.4320
  16   0.0000       0.658206        17.9107
  17   0.0000       0.905146        24.6303
  18   0.0000       1.461751        39.7763

MULLIKEN ATOMIC CHARGES AND SPIN DENSITIES
------------------------------------------
   0 O :   -0.000000    0.500000
   1 O :   -0.000000    0.500000
Sum of atomic charges       :   -0.0000000

LOEWDIN ATOMIC CHARGES AND SPIN DENSITIES
-----------------------------------------
   0 O :   -0.000000    0.500000
   1 O :   -0.000000    0.500000

  Mayer bond orders larger than 0.100000
B(  0-O ,  1-O ) :   1.3427

FINAL SINGLE POINT ENERGY      -149.723379716478

DIPOLE MOMENT
-------------
                                X             Y             Z
Electronic contribution:      0.00000      -0.00000      -0.00000
Nuclear contribution   :      0.00000       0.00000       0.00000
                        -----------------------------------------
Total Dipole Moment    :      0.00000      -0.00000      -0.00000
                        -----------------------------------------
Magnitude (a.u.)       :      0.00000
Magnitude (Debye)      :      0.00000

Rotational constants in cm-1:     0.000000     1.449384     1.449384
Rotational constants in MHz :     0.000000 43451.442843 43451.442843

                             ****ORCA TERMINATED NORMALLY****
TOTAL RUN TIME: 0 days 0 hours 0 minutes 34 seconds 47 msec
