                         Program Version 5.0  -  CURRENT   -
|  1> ! def2-TZVP
|  2>
|  3> %casscf
|  4>   nel 2
|  5>   norb 2
|  6>   mult 3,1
|  7>   nroots 1,3
|  8> end
|  9>
| 10> *xyz 0 3
| 11> O 0.0 0.0 0.0
| 12> O 0.0 0.0 1.2058
| 13> *
| 14>
| 15>                          ****END OF INPUT****

CARTESIAN COORDINATES (ANGSTROEM)
---------------------------------
  O      0.000000    0.000000    0.000000
  O      0.000000    0.000000    1.205800

 Total Charge           Charge          ....    0
 Multiplicity           Mult            ....    3
 Number of Electrons    NEL             ....   16
 Basis Dimension        Dim             ....   62

ORBITAL ENERGIES
----------------

  NO   OCC          E(Eh)            E(eV)
   0   2.0000     -20.734545      -564.2157
   1   2.0000     -20.733582      -564.1894
   2   2.0000      -1.653931       -45.0057
   3   2.0000      -1.100137       -29.9363
   4   2.0000      -0.738399       -20.0929
   5   2.0000      -0.708484       -19.2788
   6   2.0000      -0.708484       -19.2788
   7   1.0000      -0.213263        -5.8032
   8   1.0000      -0.213263        -5.8032
   9   0.0000       0.356027         9.6880
  10   0.0000       0.477744        13.0001
  11   0.0000       0.534671        14.5491
  12   0.0000       0.534671        14.5491
  13   0.0000       0.575284        15.6543

MULLIKEN ATOMIC CHARGES AND SPIN DENSITIES
------------------------------------------
   0 O :    0.000000    0.500000
   1 O :   -0.000000    0.500000
Sum of atomic charges       :   -0.0000000

LOEWDIN ATOMIC CHARGES AND SPIN DENSITIES
-----------------------------------------
   0 O :    0.000000    0.500000
   1 O :   -0.000000    0.500000

  Mayer bond orders larger than 0.100000
B(  0-O ,  1-O ) :   1.4850

FINAL SINGLE POINT ENERGY      -149.629105080417

DIPOLE MOMENT
-------------
                                X             Y             Z
Electronic contribution:      0.00000       0.00000      -0.00000
Nuclear contribution   :      0.00000       0.00000       0.00000
                        -----------------------------------------
Total Dipole Moment    :      0.00000       0.00000      -0.00000
                        -----------------------------------------
Magnitude (a.u.)       :      0.00000
Magnitude (Debye)      :      0.00000

Rotational constants in cm-1:     0.000000     1.449384     1.449384
Rotational constants in MHz :     0.000000 43451.442843 43451.442843

                             ****ORCA TERMINATED NORMALLY****
TOTAL RUN TIME: 0 days 0 hours 0 minutes 3 seconds 402 msec
