                         Program Version 5.0  -  CURRENT   -
|  1> ! def2-TZVP def2-TZVP/C moread
|  2>
|  3> %moinp "cas_2_2.gbw"
|  4>
|  5> %maxcore 12000
|  6>
|  7> %pal
|  8>   nprocs 24
|  9> end
| 10>
| 11> %casscf
| 12>   nel 12
| 13>   norb 60
| 14>   mult 3,1
| 15>   nroots 5,4
| 16>   dotransdens false
| 17>   maxiter 1
| 18>   cistep ice
| 19>   ci
| 20>     icetype csfs
| 21>     tgen 1e-4
| 22>     tvar 1e-10
| 23>     csfciwithri 0
| 24>     cibufferlength 10000000
| 25>   end
| 26>   refs
| 27>     {2 2 2 2 2 1 1}
| 28>     {2 2 2 2 1 2 1}
| 29>     {2 2 2 1 2 2 1}
| 30>     {2 2 2 2 1 1 2}
| 31>     {2 2 2 1 2 1 2}
| 32>   end
| 33>   refs
| 34>     {2 2 2 2 2 2 0}
| 35>     {2 2 2 2 2 0 2}
| 36>     {2 2 2 2 2 1 -1}
| 37>     {2 2 2 2 1 2 -1}
| 38>     {2 2 2 2 1 -1 2}
| 39>     {2 2 2 1 2 2 -1}
| 40>     {2 2 2 1 2 -1 2}
| 41>   end
| 42>   rel
| 43>     dosoc true
| 44>     dossc true
| 45>     uv false
| 46>   end
| 47> end
| 48>
| 49> *xyz 0 3
| 50> O 0.0 0.0 0.0
| 51> O 0.0 0.0 1.2058
| 52> *
| 53>
| 54>                          ****END OF INPUT****

CARTESIAN COORDINATES (ANGSTROEM)
---------------------------------
  O      0.000000    0.000000    0.000000
  O      0.000000    0.000000    1.205800

 Total Charge           Charge          ....    0
 Multiplicity           Mult            ....    3
 Number of Electrons    NEL             ....   16
 Basis Dimension        Dim             ....   62

ORBITAL ENERGIES
----------------

  NO   OCC          E(Eh)            E(eV)
   0   2.0000     -20.695485      -563.1528
   1   2.0000     -20.694707      -563.1316
   2   1.9786      -1.639527       -44.6138
   3   1.9721      -1.085674       -29.5427
   4   1.9458      -0.714392       -19.4396
   5   1.7000      -0.647869       -17.6294
   6   1.7001      -0.647902       -17.6303
   7   1.2610      -0.257109        -6.9963
   8   1.2611      -0.257126        -6.9968
   9   0.0179       0.351798         9.5729
  10   0.0086       0.477283        12.9875
  11   0.0109       0.531160        14.4536
  12   0.0109       0.531160        14.4536
  13   0.0029       0.573216        15.5980
  14   0.0073       0.642332        17.4787
  15   0.0073       0.642332        17.4787
  16   0.0357       0.663630        18.0583
  17   0.0037       0.905821        24.6486
  18   0.0054       1.469501        39.9872
  19   0.0054       1.469501        39.9872
  20   0.0072       1.559330        42.4315
  21   0.0072       1.559330        42.4315
  22   0.0039       1.898918        51.6722
  23   0.0039       1.898918        51.6722
  24   0.0033       2.110102        57.4188
  25   0.0024       2.409863        65.5757
  26   0.0024       2.409863        65.5757
  27   0.0029       2.442008        66.4504
  28   0.0037       2.806764        76.3759
  29   0.0037       2.806764        76.3759
  30   0.0033       2.876186        78.2650
  31   0.0026       3.108361        84.5828
  32   0.0021       3.146249        85.6138
  33   0.0021       3.146249        85.6138
  34   0.0019       3.290143        89.5293
  35   0.0005       4.639138       126.2374
  36   0.0005       4.988910       135.7551
  37   0.0005       4.988910       135.7551
  38   0.0006       5.035581       137.0251
  39   0.0006       5.035582       137.0251
  40   0.0004       5.337220       145.2331
  41   0.0004       5.337220       145.2331
  42   0.0009       5.431353       147.7946
  43   0.0003       5.588433       152.0690
  44   0.0003       5.588433       152.0690
  45   0.0003       6.140185       167.0829
  46   0.0003       6.140185       167.0829
  47   0.0009       6.553171       178.3209
  48   0.0009       6.553172       178.3209
  49   0.0007       6.764931       184.0831
  50   0.0007       6.764931       184.0831
  51   0.0007       6.793869       184.8706
  52   0.0007       6.793867       184.8705
  53   0.0006       6.850920       186.4230
  54   0.0006       6.908040       187.9773
  55   0.0006       6.908041       187.9773
  56   0.0001       7.671346       208.7479
  57   0.0001       7.671344       208.7479
  58   0.0003       7.951311       216.3662
  59   0.0001       9.146432       248.8871
  60   0.0000      44.525803      1211.6087
  61   0.0000      45.064355      1226.2634

MULLIKEN ATOMIC CHARGES AND SPIN DENSITIES
------------------------------------------
   0 O :    0.000000    0.500000
   1 O :   -0.000000    0.500000
Sum of atomic charges       :   -0.0000000

LOEWDIN ATOMIC CHARGES AND SPIN DENSITIES
-----------------------------------------
   0 O :    0.000000    0.500000
   1 O :   -0.000000    0.500000

  Mayer bond orders larger than 0.100000
B(  0-O ,  1-O ) :   0.8198

FINAL SINGLE POINT ENERGY      -149.977753395252

DIPOLE MOMENT
-------------
                                X             Y             Z
Electronic contribution:     -0.00000      -0.00000      -0.00000
Nuclear contribution   :      0.00000       0.00000       0.00000
                        -----------------------------------------
Total Dipole Moment    :     -0.00000      -0.00000      -0.00000
                        -----------------------------------------
Magnitude (a.u.)       :      0.00000
Magnitude (Debye)      :      0.00000

Rotational constants in cm-1:     0.000000     1.449384     1.449384
Rotational constants in MHz :     0.000000 43451.442843 43451.442843

                             ****ORCA TERMINATED NORMALLY****
TOTAL RUN TIME: 21 days 8 hours 49 minutes 22 seconds 395 msec
