                         Program Version 5.0  -  CURRENT   -
|  1> ! DKH2 SARC-DKH-TZVP moread
|  2>
|  3> %moinp "pmodel.gbw"
|  4>
|  5> %pal
|  6>   nprocs 12
|  7> end
|  8>
|  9> %scf
| 10>   rotate
| 11>     {18, 23, 90}
| 12>   end
| 13> end
| 14>
| 15> %casscf
| 16>   nel 3
| 17>   norb 5
| 18>   mult 4,2
| 19>   nroots 10,40
| 20> end
| 21>
| 22> * xyz 3 2
| 23> Mo 0.000000 0.000000 0.000000
| 24> *
| 25>
| 26>                          ****END OF INPUT****

CARTESIAN COORDINATES (ANGSTROEM)
---------------------------------
  Mo     0.000000    0.000000    0.000000

 Total Charge           Charge          ....    3
 Multiplicity           Mult            ....    2
 Number of Electrons    NEL             ....   39
 Basis Dimension        Dim             ....   77

ORBITAL ENERGIES
----------------

  NO   OCC          E(Eh)            E(eV)
   0   2.0000    -739.915877    -20134.1346
   1   2.0000    -108.362562     -2948.6952
   2   2.0000     -96.818120     -2634.5550
   3   2.0000     -96.818120     -2634.5550
   4   2.0000     -96.818120     -2634.5550
   5   2.0000     -20.665599      -562.3395
   6   2.0000     -16.764913      -456.1965
   7   2.0000     -16.764912      -456.1965
   8   2.0000     -16.764912      -456.1965
   9   2.0000     -10.402841      -283.0757
  10   2.0000     -10.402841      -283.0757
  11   2.0000     -10.402841      -283.0757
  12   2.0000     -10.402841      -283.0757
  13   2.0000     -10.402841      -283.0757
  14   2.0000      -4.109520      -111.8257
  15   2.0000      -2.937557       -79.9350
  16   2.0000      -2.937557       -79.9350
  17   2.0000      -2.937557       -79.9350
  18   0.6000      -1.047821       -28.5127
  19   0.6000      -1.047821       -28.5127
  20   0.6000      -1.047821       -28.5127
  21   0.6000      -1.047821       -28.5127
  22   0.6000      -1.047821       -28.5127
  23   0.0000      -0.792287       -21.5592
  24   0.0000      -0.608880       -16.5685
  25   0.0000      -0.608880       -16.5685
  26   0.0000      -0.608880       -16.5685
  27   0.0000      -0.378796       -10.3076

MULLIKEN ATOMIC CHARGES AND SPIN DENSITIES
------------------------------------------
   0 Mo:    3.000000    2.000000
Sum of atomic charges       :    3.0000000

LOEWDIN ATOMIC CHARGES AND SPIN DENSITIES
-----------------------------------------
   0 Mo:    3.000000    2.000000

FINAL SINGLE POINT ENERGY     -4043.746778120595

DIPOLE MOMENT
-------------
                                X             Y             Z
Electronic contribution:      0.00000       0.00000      -0.00000
Nuclear contribution   :      0.00000       0.00000       0.00000
                        -----------------------------------------
Total Dipole Moment    :      0.00000       0.00000      -0.00000
                        -----------------------------------------
Magnitude (a.u.)       :      0.00000
Magnitude (Debye)      :      0.00000

Rotational constants in cm-1:     0.000000     0.000000     0.000000
Rotational constants in MHz :     0.000000     0.000000     0.000000

                             ****ORCA TERMINATED NORMALLY****
TOTAL RUN TIME: 0 days 0 hours 0 minutes 8 seconds 897 msec
