                         Program Version 6.0.x  -   STABLE   -
|  1> ! DKH2 DKH-def2-TZVP RI-NEVPT2 autoaux pal8
|  2>
|  3> %maxcore 4000
|  4>
|  5> %casscf
|  6>   nel 3
|  7>   norb 5
|  8>   mult 2
|  9>   nroots 2
| 10>   rel
| 11>     dosoc true
| 12>     gtensor true
| 13>   end
| 14> end
| 15>
| 16> %basis
| 17>   NewGTO Mo "SARC-DKH-TZVP" end
| 18> end
| 19>
| 20> * xyz 0 2
| 21> Mo 0.000000 0.000000 0.000000
| 22> N 0.000000 -0.000000 2.216533
| 23> N -0.285171 0.004718 -2.279534
| 24> N 2.004311 0.474895 0.316334
| 25> N -0.518640 -1.927117 0.328953
| 26> N -1.436837 1.399372 0.350965
| 27> C 2.970024 0.928749 -0.594152
| 28> C -0.581237 -2.365423 1.743326
| 29> C -0.830393 -1.164002 2.652054
| 30> C -0.582721 1.300275 2.658544
| 31> C -1.760506 1.681705 1.765676
| 32> C -2.297164 2.076237 -0.555955
| 33> C -1.863288 3.517436 -0.893714
| 34> C 2.318314 0.721784 1.731216
| 35> C 1.427336 -0.143035 2.619678
| 36> C -0.748254 -2.988987 -0.591353
| 37> C -2.225153 -3.401980 -0.777574
| 38> C 4.230037 0.039526 -0.716681
| 39> H 3.306753 1.968583 -0.362264
| 40> H -0.884911 1.257688 3.734853
| 41> H 0.214347 2.063803 2.551589
| 42> H -1.987450 2.762476 1.926932
| 43> H -2.688755 1.130205 2.070077
| 44> H 1.560266 0.116824 3.699429
| 45> H 1.702564 -1.208656 2.481159
| 46> H -1.891664 -0.853055 2.556872
| 47> H -0.634431 -1.411885 3.724765
| 48> H -1.396483 -3.106776 1.917960
| 49> H 0.368415 -2.890826 2.024018
| 50> H -1.174880 0.491053 -2.522161
| 51> H 0.462152 0.518729 -2.788176
| 52> H -0.336996 -0.936202 -2.722830
| 53> H 2.201169 1.801001 2.006636
| 54> H 3.382951 0.463776 1.952892
| 55> H 2.515735 0.996716 -1.600586
| 56> H -3.345231 2.108265 -0.176930
| 57> H -2.372707 1.512731 -1.505640
| 58> H -0.168591 -3.895865 -0.302868
| 59> H -0.343914 -2.702078 -1.579029
| 60> H -2.820366 -2.544804 -1.127277
| 61> H -2.321620 -4.218722 -1.511452
| 62> H -2.669196 -3.751571 0.166806
| 63> H -1.822879 4.142017 0.011595
| 64> H -0.857324 3.512842 -1.339810
| 65> H -2.563100 3.993966 -1.599621
| 66> H 4.935889 0.454691 -1.454255
| 67> H 4.763546 -0.040601 0.242620
| 68> H 3.947836 -0.976362 -1.030904
| 69> *
| 70>
| 71>                          ****END OF INPUT****

CARTESIAN COORDINATES (ANGSTROEM)
---------------------------------
  Mo     0.000000    0.000000    0.000000
  N      0.000000   -0.000000    2.216533
  N     -0.285171    0.004718   -2.279534
  N      2.004311    0.474895    0.316334
  N     -0.518640   -1.927117    0.328953
  N     -1.436837    1.399372    0.350965
  C      2.970024    0.928749   -0.594152
  C     -0.581237   -2.365423    1.743326
  C     -0.830393   -1.164002    2.652054
  C     -0.582721    1.300275    2.658544
  C     -1.760506    1.681705    1.765676
  C     -2.297164    2.076237   -0.555955
  C     -1.863288    3.517436   -0.893714
  C      2.318314    0.721784    1.731216
  C      1.427336   -0.143035    2.619678
  C     -0.748254   -2.988987   -0.591353
  C     -2.225153   -3.401980   -0.777574
  C      4.230037    0.039526   -0.716681
  H      3.306753    1.968583   -0.362264
  H     -0.884911    1.257688    3.734853
  H      0.214347    2.063803    2.551589
  H     -1.987450    2.762476    1.926932
  H     -2.688755    1.130205    2.070077
  H      1.560266    0.116824    3.699429
  H      1.702564   -1.208656    2.481159
  H     -1.891664   -0.853055    2.556872
  H     -0.634431   -1.411885    3.724765
  H     -1.396483   -3.106776    1.917960
  H      0.368415   -2.890826    2.024018
  H     -1.174880    0.491053   -2.522161
  H      0.462152    0.518729   -2.788176
  H     -0.336996   -0.936202   -2.722830
  H      2.201169    1.801001    2.006636
  H      3.382951    0.463776    1.952892
  H      2.515735    0.996716   -1.600586
  H     -3.345231    2.108265   -0.176930
  H     -2.372707    1.512731   -1.505640
  H     -0.168591   -3.895865   -0.302868
  H     -0.343914   -2.702078   -1.579029
  H     -2.820366   -2.544804   -1.127277
  H     -2.321620   -4.218722   -1.511452
  H     -2.669196   -3.751571    0.166806
  H     -1.822879    4.142017    0.011595
  H     -0.857324    3.512842   -1.339810
  H     -2.563100    3.993966   -1.599621
  H      4.935889    0.454691   -1.454255
  H      4.763546   -0.040601    0.242620
  H      3.947836   -0.976362   -1.030904

 Total Charge           Charge          ....    0
 Multiplicity           Mult            ....    2
 Number of Electrons    NEL             ....  179
 Basis Dimension        Dim             ....  801

ORBITAL ENERGIES
----------------

  NO   OCC          E(Eh)            E(eV)
   0   2.0000    -738.722260    -20101.6547
   1   2.0000    -107.174786     -2916.3742
   2   2.0000     -95.630691     -2602.2434
   3   2.0000     -95.630649     -2602.2422
   4   2.0000     -95.626418     -2602.1271
   5   2.0000     -19.482885      -530.1562
   6   2.0000     -15.616116      -424.9361
   7   2.0000     -15.589434      -424.2101
   8   2.0000     -15.586495      -424.1301
   9   2.0000     -15.586378      -424.1269
  10   2.0000     -15.571355      -423.7181
  11   2.0000     -15.499320      -421.7579
  12   2.0000     -15.498306      -421.7304
  13   2.0000     -15.489401      -421.4880
  14   2.0000     -11.260163      -306.4046
  15   2.0000     -11.259963      -306.3992
  16   2.0000     -11.256940      -306.3169
  17   2.0000     -11.243888      -305.9618
  18   2.0000     -11.242527      -305.9247
  19   2.0000     -11.238374      -305.8117
  20   2.0000     -11.237874      -305.7981
  21   2.0000     -11.235490      -305.7332
  22   2.0000     -11.228142      -305.5333
  23   2.0000     -11.206340      -304.9400
  24   2.0000     -11.205378      -304.9138
  25   2.0000     -11.197017      -304.6863
  26   2.0000      -9.224525      -251.0121
  27   2.0000      -9.224395      -251.0085
  28   2.0000      -9.218903      -250.8591
  29   2.0000      -9.218833      -250.8572
  30   2.0000      -9.205097      -250.4834
  31   2.0000      -2.957740       -80.4842
  32   2.0000      -1.806387       -49.1543
  33   2.0000      -1.804364       -49.0993
  34   2.0000      -1.801158       -49.0120
  35   2.0000      -1.241324       -33.7781
  36   2.0000      -1.188541       -32.3418
  37   2.0000      -1.153247       -31.3814
  38   2.0000      -1.150852       -31.3163
  39   2.0000      -1.144305       -31.1381
  40   2.0000      -1.016809       -27.6688
  41   2.0000      -1.014271       -27.5997
  42   2.0000      -0.977113       -26.5886
  43   2.0000      -0.942484       -25.6463
  44   2.0000      -0.937784       -25.5184
  45   2.0000      -0.901827       -24.5399
  46   2.0000      -0.831910       -22.6374
  47   2.0000      -0.830386       -22.5959
  48   2.0000      -0.799682       -21.7605
  49   2.0000      -0.767595       -20.8873
  50   2.0000      -0.760301       -20.6888
  51   2.0000      -0.738563       -20.0973
  52   2.0000      -0.678037       -18.4503
  53   2.0000      -0.673470       -18.3260
  54   2.0000      -0.652812       -17.7639
  55   2.0000      -0.650917       -17.7123
  56   2.0000      -0.648937       -17.6585
  57   2.0000      -0.611353       -16.6358
  58   2.0000      -0.609254       -16.5787
  59   2.0000      -0.604031       -16.4365
  60   2.0000      -0.595205       -16.1964
  61   2.0000      -0.594652       -16.1813
  62   2.0000      -0.590977       -16.0813
  63   2.0000      -0.570693       -15.5294
  64   2.0000      -0.566731       -15.4215
  65   2.0000      -0.538545       -14.6545
  66   2.0000      -0.527717       -14.3599
  67   2.0000      -0.524194       -14.2640
  68   2.0000      -0.522697       -14.2233
  69   2.0000      -0.518767       -14.1164
  70   2.0000      -0.513633       -13.9767
  71   2.0000      -0.513256       -13.9664
  72   2.0000      -0.510808       -13.8998
  73   2.0000      -0.497422       -13.5355
  74   2.0000      -0.496854       -13.5201
  75   2.0000      -0.486790       -13.2462
  76   2.0000      -0.476604       -12.9691
  77   2.0000      -0.473063       -12.8727
  78   2.0000      -0.469798       -12.7839
  79   2.0000      -0.455189       -12.3863
  80   2.0000      -0.453407       -12.3378
  81   2.0000      -0.428042       -11.6476
  82   2.0000      -0.416128       -11.3234
  83   2.0000      -0.405079       -11.0228
  84   2.0000      -0.402353       -10.9486
  85   2.0000      -0.322610        -8.7787
  86   2.0000      -0.312937        -8.5155
  87   2.0000      -0.283294        -7.7088
  88   1.4828      -0.159225        -4.3327
  89   1.4823      -0.160990        -4.3808
  90   0.0151       0.257790         7.0148
  91   0.0144       0.261959         7.1283
  92   0.0053       0.443234        12.0610
  93   0.0000       0.104929         2.8553
  94   0.0000       0.137438         3.7399
  95   0.0000       0.137657         3.7458
  96   0.0000       0.142038         3.8651
  97   0.0000       0.164775         4.4838

MULLIKEN ATOMIC CHARGES AND SPIN DENSITIES
------------------------------------------
   0 Mo:    1.887761    0.970220
   1 N :   -0.294821    0.003001
   2 N :   -0.769829    0.002636
   3 N :   -0.738238    0.001030
   4 N :   -0.729346    0.001484
   5 N :   -0.738114    0.001689
   6 C :   -0.043681    0.001402
   7 C :   -0.110418    0.002200
   8 C :   -0.107596    0.000783
   9 C :   -0.113579    0.000790
  10 C :   -0.105123    0.002061
  11 C :   -0.069377    0.002324
  12 C :   -0.306499   -0.000230
  13 C :   -0.094725    0.001571
  14 C :   -0.100709    0.000598
  15 C :   -0.073910    0.002145
  16 C :   -0.310540   -0.000016
  17 C :   -0.314588    0.000068
  18 H :    0.059643    0.000433
  19 H :    0.106013    0.000274
  20 H :    0.109871    0.000168
  21 H :    0.093620    0.000112
  22 H :    0.084081    0.000219
  23 H :    0.101692    0.000390
  24 H :    0.111483    0.000149
  25 H :    0.110270    0.000169
  26 H :    0.105644    0.000192
  27 H :    0.093665    0.000126
  28 H :    0.086680    0.000214
  29 H :    0.271813    0.000558
  30 H :    0.279486    0.000366
  31 H :    0.273600    0.000724
  32 H :    0.077444    0.000207
  33 H :    0.088243    0.000124
  34 H :    0.025977   -0.000041
  35 H :    0.075026    0.000430
  36 H :    0.018777    0.000074
  37 H :    0.072928    0.000425
  38 H :    0.032222    0.000087
  39 H :    0.091613    0.000168
  40 H :    0.100259    0.000087
  41 H :    0.095511    0.000030
  42 H :    0.097291    0.000030
  43 H :    0.091461    0.000223
  44 H :    0.099133    0.000093
  45 H :    0.093069    0.000073
  46 H :    0.091552    0.000031
  47 H :    0.095268    0.000107
Sum of atomic charges       :    0.0000000

LOEWDIN ATOMIC CHARGES AND SPIN DENSITIES
-----------------------------------------
   0 Mo:    0.510334    0.918756
   1 N :    0.097897    0.006960
   2 N :   -0.220190    0.010503
   3 N :   -0.135058    0.009653
   4 N :   -0.135963    0.011335
   5 N :   -0.136011    0.010973
   6 C :   -0.369008    0.003092
   7 C :   -0.287203    0.002658
   8 C :   -0.231234    0.001751
   9 C :   -0.233556    0.001872
  10 C :   -0.290849    0.002540
  11 C :   -0.356542    0.002802
  12 C :   -0.298212    0.000460
  13 C :   -0.295424    0.002262
  14 C :   -0.234992    0.002123
  15 C :   -0.353801    0.003098
  16 C :   -0.299065    0.000464
  17 C :   -0.299165    0.000440
  18 H :    0.108196    0.000270
  19 H :    0.123366    0.000144
  20 H :    0.138403    0.000106
  21 H :    0.119267    0.000105
  22 H :    0.110734    0.000120
  23 H :    0.121785    0.000216
  24 H :    0.140302    0.000102
  25 H :    0.139018    0.000081
  26 H :    0.122976    0.000108
  27 H :    0.119691    0.000118
  28 H :    0.111807    0.000118
  29 H :    0.164044    0.001628
  30 H :    0.165745    0.001604
  31 H :    0.164086    0.001690
  32 H :    0.109093    0.000087
  33 H :    0.118980    0.000123
  34 H :    0.107699    0.000372
  35 H :    0.114414    0.000252
  36 H :    0.102696    0.000149
  37 H :    0.113077    0.000259
  38 H :    0.106594    0.000221
  39 H :    0.105460    0.000054
  40 H :    0.105078    0.000056
  41 H :    0.105605    0.000012
  42 H :    0.107103    0.000010
  43 H :    0.105964    0.000081
  44 H :    0.104253    0.000058
  45 H :    0.103201    0.000047
  46 H :    0.103571    0.000016
  47 H :    0.105835    0.000053

  Mayer bond orders larger than 0.100000
B(  0-Mo,  1-N ) :   0.2102 B(  0-Mo,  2-N ) :   0.1440 B(  0-Mo,  3-N ) :   0.4126
B(  0-Mo,  4-N ) :   0.4269 B(  0-Mo,  5-N ) :   0.4011 B(  1-N ,  8-C ) :   0.9212
B(  1-N ,  9-C ) :   0.9229 B(  1-N , 14-C ) :   0.9267 B(  2-N , 29-H ) :   0.9155
B(  2-N , 30-H ) :   0.9151 B(  2-N , 31-H ) :   0.9154 B(  3-N ,  6-C ) :   0.9778
B(  3-N , 13-C ) :   0.9838 B(  4-N ,  7-C ) :   0.9656 B(  4-N , 15-C ) :   0.9726
B(  5-N , 10-C ) :   0.9665 B(  5-N , 11-C ) :   0.9664 B(  6-C , 17-C ) :   0.9659
B(  6-C , 18-H ) :   0.9870 B(  6-C , 34-H ) :   0.9947 B(  7-C ,  8-C ) :   1.0054
B(  7-C , 27-H ) :   0.9870 B(  7-C , 28-H ) :   0.9836 B(  8-C , 25-H ) :   0.9755
B(  8-C , 26-H ) :   0.9879 B(  9-C , 10-C ) :   1.0046 B(  9-C , 19-H ) :   0.9882
B(  9-C , 20-H ) :   0.9750 B( 10-C , 21-H ) :   0.9862 B( 10-C , 22-H ) :   0.9836
B( 11-C , 12-C ) :   0.9604 B( 11-C , 35-H ) :   0.9906 B( 11-C , 36-H ) :   0.9999
B( 12-C , 42-H ) :   0.9863 B( 12-C , 43-H ) :   0.9824 B( 12-C , 44-H ) :   0.9923
B( 13-C , 14-C ) :   1.0033 B( 13-C , 32-H ) :   0.9806 B( 13-C , 33-H ) :   0.9848
B( 14-C , 23-H ) :   0.9884 B( 14-C , 24-H ) :   0.9729 B( 15-C , 16-C ) :   0.9570
B( 15-C , 37-H ) :   0.9911 B( 15-C , 38-H ) :   1.0017 B( 16-C , 39-H ) :   0.9833
B( 16-C , 40-H ) :   0.9915 B( 16-C , 41-H ) :   0.9863 B( 17-C , 45-H ) :   0.9909
B( 17-C , 46-H ) :   0.9870 B( 17-C , 47-H ) :   0.9841

--------------------------------------------------------------------------------------------------------
      SOC CORRECTED ABSORPTION SPECTRUM VIA TRANSITION ELECTRIC DIPOLE MOMENTS
--------------------------------------------------------------------------------------------------------
      Transition         Energy     Energy  Wavelength fosc(D2)      D2       |DX|      |DY|      |DZ|
                          (eV)      (cm-1)    (nm)  (*population)  (au**2)    (au)      (au)      (au)
--------------------------------------------------------------------------------------------------------
  0-2.0A  ->  1-2.0A    0.000000       0.0     0.0   0.000000000   0.00000   0.00000   0.00000   0.00000
  1-2.0A  ->  2-2.0A    0.091313     736.5  13577.9   0.000000001   0.00000   0.00086   0.00031   0.00020
  1-2.0A  ->  3-2.0A    0.091313     736.5  13577.9   0.000001878   0.00173   0.03662   0.01582   0.01167
  0-2.0A  ->  2-2.0A    0.091313     736.5  13577.9   0.000001878   0.00173   0.03662   0.01582   0.01167
  0-2.0A  ->  3-2.0A    0.091313     736.5  13577.9   0.000000001   0.00000   0.00086   0.00031   0.00020

FINAL SINGLE POINT ENERGY     -4793.784673495920

DIPOLE MOMENT
-------------

Method             : CASSCF
Type of density    : Electron Density
Level              : Unrelaxed density
State              :   1
Multiplicity       :   2
Irrep              :   0
Energy             :     0.0000000000000000 Eh
Relativity type    :
Basis              : AO
                                X                 Y                 Z
Electronic contribution:      0.233927182      -0.568269115      -2.770098245
Nuclear contribution   :     -0.686217247       0.585183189       2.323080071
                        -----------------------------------------
Total Dipole Moment    :     -0.452290066       0.016914074      -0.447018173
                        -----------------------------------------
Magnitude (a.u.)       :      0.636142780
Magnitude (Debye)      :      1.616946446

Rotational constants in cm-1:             0.011582             0.011080             0.009673
Rotational constants in MHz :           347.213527           332.180003           289.981014

                             ****ORCA TERMINATED NORMALLY****
TOTAL RUN TIME: 0 days 1 hours 28 minutes 11 seconds 602 msec
