                         Program Version 6.0.x  -  CURRENT   -
|  1> ! def2-TZVP def2-TZVP/C moread
|  2>
|  3> %moinp "CASSCF.gbw"
|  4>
|  5> %maxcore 8000
|  6>
|  7> %pal
|  8>   nprocs 4
|  9> end
| 10>
| 11> %casscf
| 12>   nel 8
| 13>   norb 10
| 14>   mult 3,1
| 15>   nroots 1,3
| 16>   maxiter 1
| 17>   cistep ice
| 18>   ci
| 19>     icetype csfs
| 20>     tgen 0.0
| 21>     tvar 0.0
| 22>     csfciwithri 0
| 23>     cibufferlength 1000000
| 24>   end
| 25>   refs
| 26>     {2 2 2 1 1}
| 27>   end
| 28>   refs
| 29>     {2 2 2 2 0}
| 30>     {2 2 2 0 2}
| 31>     {2 2 2 1 -1}
| 32>   end
| 33>   rel
| 34>     dosoc true
| 35>     dossc true
| 36>     ssc_unequalmult false
| 37>   end
| 38> end
| 39>
| 40> *xyz 0 3
| 41> O 0.0 0.0 0.0
| 42> O 0.0 0.0 1.2058
| 43> *
| 44>
| 45>                          ****END OF INPUT****

CARTESIAN COORDINATES (ANGSTROEM)
---------------------------------
  O      0.000000    0.000000    0.000000
  O      0.000000    0.000000    1.205800

 Total Charge           Charge          ....    0
 Multiplicity           Mult            ....    3
 Number of Electrons    NEL             ....   16
 Basis Dimension        Dim             ....   62

ORBITAL ENERGIES
----------------

  NO   OCC          E(Eh)            E(eV)
   0   2.0000     -20.695465      -563.1522
   1   2.0000     -20.694770      -563.1333
   2   2.0000      -1.471169       -40.0325
   3   2.0000      -1.087492       -29.5922
   4   1.9596      -0.882637       -24.0178
   5   1.9502      -0.687648       -18.7118
   6   1.9502      -0.687648       -18.7118
   7   1.0381      -0.206195        -5.6109
   8   1.0381      -0.206195        -5.6109
   9   0.0406       0.666555        18.1379
  10   0.0105       1.313413        35.7398
  11   0.0105       1.313413        35.7398
  12   0.0017       2.264298        61.6147
  13   0.0005       2.453830        66.7721
  14   0.0000       0.510689        13.8965
  15   0.0000       0.643170        17.5015
  16   0.0000       0.643170        17.5015
  17   0.0000       0.891286        24.2531
  18   0.0000       1.084104        29.5000

MULLIKEN ATOMIC CHARGES AND SPIN DENSITIES
------------------------------------------
   0 O :    0.000000    0.500000
   1 O :   -0.000000    0.500000
Sum of atomic charges       :   -0.0000000

LOEWDIN ATOMIC CHARGES AND SPIN DENSITIES
-----------------------------------------
   0 O :    0.000000    0.500000
   1 O :   -0.000000    0.500000

  Mayer bond orders larger than 0.100000
B(  0-O ,  1-O ) :   1.3292

--------------------------------------------------------------------------------------------------------
  SOC+SSC CORRECTED ABSORPTION SPECTRUM VIA TRANSITION ELECTRIC DIPOLE MOMENTS
--------------------------------------------------------------------------------------------------------
      Transition         Energy     Energy  Wavelength fosc(D2)      D2       |DX|      |DY|      |DZ|
                          (eV)      (cm-1)    (nm)  (*population)  (au**2)    (au)      (au)      (au)
--------------------------------------------------------------------------------------------------------
  1-3.0A  ->  2-3.0A    0.000000       0.0     0.0   0.000000000   0.00000   0.00000   0.00000   0.00000
  0-3.0A  ->  1-3.0A    0.000467       3.8  2654808.5   0.000000000   0.00000   0.00000   0.00000   0.00000
  0-3.0A  ->  2-3.0A    0.000467       3.8  2654808.5   0.000000000   0.00000   0.00000   0.00000   0.00000
  2-3.0A  ->  3-1.0A    1.125572    9078.3  1101.5   0.000000000   0.00000   0.00000   0.00000   0.00000
  1-3.0A  ->  3-1.0A    1.125572    9078.3  1101.5   0.000000000   0.00000   0.00000   0.00000   0.00000
  2-3.0A  ->  4-1.0A    1.125572    9078.3  1101.5   0.000000000   0.00000   0.00000   0.00000   0.00000
  1-3.0A  ->  4-1.0A    1.125572    9078.3  1101.5   0.000000000   0.00000   0.00000   0.00000   0.00000
  0-3.0A  ->  3-1.0A    1.126039    9082.1  1101.1   0.000000000   0.00000   0.00000   0.00000   0.00000
  0-3.0A  ->  4-1.0A    1.126039    9082.1  1101.1   0.000000000   0.00000   0.00000   0.00000   0.00000
  2-3.0A  ->  5-1.0A    2.036798   16427.9   608.7   0.000000000   0.00000   0.00000   0.00000   0.00000
  1-3.0A  ->  5-1.0A    2.036798   16427.9   608.7   0.000000000   0.00000   0.00000   0.00000   0.00000
  0-3.0A  ->  5-1.0A    2.037265   16431.7   608.6   0.000000000   0.00000   0.00000   0.00000   0.00000

FINAL SINGLE POINT ENERGY      -149.814656570134

DIPOLE MOMENT
-------------

Method             : CASSCF/ALL STATES AVERAGE
Type of density    : Electron Density
Level              : Unrelaxed density
State              :  -1
Multiplicity       :  -1
Irrep              :   0
Energy             :  -149.7883791110229765 Eh
Basis              : AO
                                X                 Y                 Z
Electronic contribution:      0.000000039      -0.000000059      -0.000000000
Nuclear contribution   :      0.000000000       0.000000000       0.000000000
                        -----------------------------------------
Total Dipole Moment    :      0.000000039      -0.000000059      -0.000000000
                        -----------------------------------------
Magnitude (a.u.)       :      0.000000070
Magnitude (Debye)      :      0.000000179

Rotational constants in cm-1:             0.000000             1.449384             1.449384
Rotational constants in MHz :             0.000000         43451.442843         43451.442843

                             ****ORCA TERMINATED NORMALLY****
TOTAL RUN TIME: 0 days 0 hours 5 minutes 13 seconds 463 msec
