                         Program Version 6.0.x  -   STABLE   -
|  1> ! def2-TZVP def2-TZVP/C NEVPT2
|  2>
|  3> %casscf
|  4>   nel 6
|  5>   norb 4
|  6>   mult 3,1
|  7>   nroots 5,4
|  8>   rel
|  9>     dosoc true
| 10>     dossc true
| 11>   end
| 12> end
| 13>
| 14> *xyz 0 3
| 15> O 0.0 0.0 0.0
| 16> O 0.0 0.0 1.2058
| 17> *
| 18>
| 19>                          ****END OF INPUT****

CARTESIAN COORDINATES (ANGSTROEM)
---------------------------------
  O      0.000000    0.000000    0.000000
  O      0.000000    0.000000    1.205800

 Total Charge           Charge          ....    0
 Multiplicity           Mult            ....    3
 Number of Electrons    NEL             ....   16
 Basis Dimension        Dim             ....   62

ORBITAL ENERGIES
----------------

  NO   OCC          E(Eh)            E(eV)
   0   2.0000     -20.702857      -563.3534
   1   2.0000     -20.702070      -563.3320
   2   2.0000      -1.646347       -44.7994
   3   2.0000      -1.092050       -29.7162
   4   2.0000      -0.724498       -19.7146
   5   1.6996      -0.646766       -17.5994
   6   1.6996      -0.646766       -17.5994
   7   1.3004      -0.264082        -7.1860
   8   1.3004      -0.264082        -7.1860
   9   0.0000       0.359436         9.7807
  10   0.0000       0.481323        13.0975
  11   0.0000       0.533772        14.5247
  12   0.0000       0.533772        14.5247
  13   0.0000       0.576245        15.6804

MULLIKEN ATOMIC CHARGES AND SPIN DENSITIES
------------------------------------------
   0 O :   -0.000000    0.500000
   1 O :    0.000000    0.500000
Sum of atomic charges       :   -0.0000000

LOEWDIN ATOMIC CHARGES AND SPIN DENSITIES
-----------------------------------------
   0 O :   -0.000000    0.500000
   1 O :    0.000000    0.500000

  Mayer bond orders larger than 0.100000
B(  0-O ,  1-O ) :   0.8798

--------------------------------------------------------------------------------------------------------
  SOC+SSC CORRECTED ABSORPTION SPECTRUM VIA TRANSITION ELECTRIC DIPOLE MOMENTS
--------------------------------------------------------------------------------------------------------
      Transition         Energy     Energy  Wavelength fosc(D2)      D2       |DX|      |DY|      |DZ|
                          (eV)      (cm-1)    (nm)  (*population)  (au**2)    (au)      (au)      (au)
--------------------------------------------------------------------------------------------------------
  1-3.0A  ->  2-3.0A    0.000000       0.0     0.0   0.000000000   0.00000   0.00000   0.00000   0.00000
  0-3.0A  ->  1-3.0A    0.000308       2.5  4029938.2   0.000000000   0.00000   0.00000   0.00000   0.00000
  0-3.0A  ->  2-3.0A    0.000308       2.5  4029938.2   0.000000000   0.00000   0.00000   0.00000   0.00000
  2-3.0A  ->  3-1.0A    1.035668    8353.2  1197.1   0.000000000   0.00000   0.00000   0.00000   0.00000
  1-3.0A  ->  3-1.0A    1.035668    8353.2  1197.1   0.000000000   0.00000   0.00000   0.00000   0.00000
  2-3.0A  ->  4-1.0A    1.035675    8353.3  1197.1   0.000000000   0.00000   0.00000   0.00000   0.00000
  1-3.0A  ->  4-1.0A    1.035675    8353.3  1197.1   0.000000000   0.00000   0.00000   0.00000   0.00000
  0-3.0A  ->  3-1.0A    1.035976    8355.7  1196.8   0.000000000   0.00000   0.00000   0.00000   0.00000
  0-3.0A  ->  4-1.0A    1.035983    8355.8  1196.8   0.000000000   0.00000   0.00000   0.00000   0.00000
  2-3.0A  ->  5-1.0A    1.929163   15559.7   642.7   0.000000000   0.00000   0.00000   0.00000   0.00000
  1-3.0A  ->  5-1.0A    1.929163   15559.7   642.7   0.000000000   0.00000   0.00000   0.00000   0.00000
  0-3.0A  ->  5-1.0A    1.929470   15562.2   642.6   0.000000000   0.00000   0.00000   0.00000   0.00000
  2-3.0A  ->  6-1.0A    6.363810   51327.6   194.8   0.000000000   0.00000   0.00000   0.00000   0.00000
  1-3.0A  ->  6-1.0A    6.363810   51327.6   194.8   0.000000000   0.00000   0.00000   0.00000   0.00000
  0-3.0A  ->  6-1.0A    6.364118   51330.1   194.8   0.000000000   0.00000   0.00000   0.00000   0.00000
  2-3.0A  ->  7-3.0A    6.546663   52802.4   189.4   0.000000000   0.00000   0.00000   0.00000   0.00000
  1-3.0A  ->  7-3.0A    6.546663   52802.4   189.4   0.000000000   0.00000   0.00000   0.00000   0.00000
  2-3.0A  ->  8-3.0A    6.546663   52802.4   189.4   0.000000000   0.00000   0.00000   0.00000   0.00000
  1-3.0A  ->  8-3.0A    6.546663   52802.4   189.4   0.000000000   0.00000   0.00000   0.00000   0.00000
  0-3.0A  ->  7-3.0A    6.546971   52804.9   189.4   0.000000000   0.00000   0.00000   0.00000   0.00000
  0-3.0A  ->  8-3.0A    6.546971   52804.9   189.4   0.000000000   0.00000   0.00000   0.00000   0.00000
  2-3.0A  ->  9-3.0A    6.565607   52955.2   188.8   0.000000000   0.00000   0.00000   0.00000   0.00000
  1-3.0A  ->  9-3.0A    6.565607   52955.2   188.8   0.000000000   0.00000   0.00000   0.00000   0.00000
  2-3.0A  -> 10-3.0A    6.565612   52955.2   188.8   0.000000000   0.00000   0.00000   0.00000   0.00000
  1-3.0A  -> 10-3.0A    6.565612   52955.2   188.8   0.000000000   0.00000   0.00000   0.00000   0.00000
  0-3.0A  ->  9-3.0A    6.565914   52957.7   188.8   0.000000000   0.00000   0.00000   0.00000   0.00000
  0-3.0A  -> 10-3.0A    6.565919   52957.7   188.8   0.000000000   0.00000   0.00000   0.00000   0.00000
  2-3.0A  -> 11-3.0A    6.584370   53106.5   188.3   0.000000001   0.00000   0.00000   0.00000   0.00010
  1-3.0A  -> 11-3.0A    6.584370   53106.5   188.3   0.000000000   0.00000   0.00000   0.00000   0.00002
  2-3.0A  -> 12-3.0A    6.584370   53106.5   188.3   0.000000000   0.00000   0.00000   0.00000   0.00002
  1-3.0A  -> 12-3.0A    6.584370   53106.5   188.3   0.000000001   0.00000   0.00000   0.00000   0.00010
  0-3.0A  -> 11-3.0A    6.584678   53109.0   188.3   0.000000000   0.00000   0.00000   0.00000   0.00000
  0-3.0A  -> 12-3.0A    6.584678   53109.0   188.3   0.000000000   0.00000   0.00000   0.00000   0.00000
  2-3.0A  -> 13-3.0A    6.693035   53983.0   185.2   0.011749946   0.21583   0.00000   0.00000   0.46457
  1-3.0A  -> 13-3.0A    6.693035   53983.0   185.2   0.061444838   1.12864   0.00000   0.00000   1.06237
  2-3.0A  -> 14-3.0A    6.693035   53983.0   185.2   0.061444838   1.12864   0.00000   0.00000   1.06237
  1-3.0A  -> 14-3.0A    6.693035   53983.0   185.2   0.011749946   0.21583   0.00000   0.00000   0.46457
  2-3.0A  -> 15-3.0A    6.693251   53984.7   185.2   0.000000000   0.00000   0.00000   0.00000   0.00000
  1-3.0A  -> 15-3.0A    6.693251   53984.7   185.2   0.000000000   0.00000   0.00000   0.00000   0.00000
  0-3.0A  -> 13-3.0A    6.693342   53985.5   185.2   0.000000000   0.00000   0.00000   0.00000   0.00000
  0-3.0A  -> 14-3.0A    6.693342   53985.5   185.2   0.000000000   0.00000   0.00000   0.00000   0.00000
  0-3.0A  -> 15-3.0A    6.693559   53987.2   185.2   0.078138636   1.41819   0.00000   0.00000   1.19088
  2-3.0A  -> 16-3.0A    6.703855   54070.2   184.9   0.002779368   0.05097   0.00000   0.00000   0.22577
  1-3.0A  -> 16-3.0A    6.703855   54070.2   184.9   0.001249533   0.02291   0.00000   0.00000   0.15138
  2-3.0A  -> 17-3.0A    6.703855   54070.2   184.9   0.001249533   0.02291   0.00000   0.00000   0.15138
  1-3.0A  -> 17-3.0A    6.703855   54070.2   184.9   0.002779368   0.05097   0.00000   0.00000   0.22577
  0-3.0A  -> 16-3.0A    6.704163   54072.7   184.9   0.000000000   0.00000   0.00000   0.00000   0.00000
  0-3.0A  -> 17-3.0A    6.704163   54072.7   184.9   0.000000000   0.00000   0.00000   0.00000   0.00000
  2-3.0A  -> 18-3.0A    6.704452   54075.1   184.9   0.000000000   0.00000   0.00000   0.00000   0.00000
  1-3.0A  -> 18-3.0A    6.704452   54075.1   184.9   0.000000000   0.00000   0.00000   0.00000   0.00000
  0-3.0A  -> 18-3.0A    6.704760   54077.5   184.9   0.000000000   0.00000   0.00000   0.00000   0.00000

FINAL SINGLE POINT ENERGY      -150.104508788294

DIPOLE MOMENT
-------------

Method             : CASSCF
Type of density    : Electron Density
Level              : Unrelaxed density
State              :  -1
Multiplicity       :  -1
Irrep              :   0
Energy             :  -149.5522793490874278 Eh
Relativity type    :
Basis              : AO
                                X                 Y                 Z
Electronic contribution:     -0.000000000       0.000000000       0.000000000
Nuclear contribution   :      0.000000000       0.000000000       0.000000000
                        -----------------------------------------
Total Dipole Moment    :     -0.000000000       0.000000000       0.000000000
                        -----------------------------------------
Magnitude (a.u.)       :      0.000000000
Magnitude (Debye)      :      0.000000000

Rotational constants in cm-1:             0.000000             1.449384             1.449384
Rotational constants in MHz :             0.000000         43451.442843         43451.442843

                             ****ORCA TERMINATED NORMALLY****
TOTAL RUN TIME: 0 days 0 hours 0 minutes 19 seconds 965 msec
