                         Program Version 6.0.x  -  CURRENT   -
|  1> ! def2-TZVP
|  2>
|  3> %casscf
|  4>   nel 8
|  5>   norb 10
|  6>   mult 3,1
|  7>   nroots 1,3
|  8> end
|  9>
| 10> *xyz 0 3
| 11> O 0.0 0.0 0.0
| 12> O 0.0 0.0 1.2058
| 13> *
| 14>
| 15>                          ****END OF INPUT****

CARTESIAN COORDINATES (ANGSTROEM)
---------------------------------
  O      0.000000    0.000000    0.000000
  O      0.000000    0.000000    1.205800

 Total Charge           Charge          ....    0
 Multiplicity           Mult            ....    3
 Number of Electrons    NEL             ....   16
 Basis Dimension        Dim             ....   62

ORBITAL ENERGIES
----------------

  NO   OCC          E(Eh)            E(eV)
   0   2.0000     -20.695466      -563.1523
   1   2.0000     -20.694771      -563.1333
   2   2.0000      -1.471169       -40.0325
   3   2.0000      -1.087492       -29.5922
   4   1.9596      -0.882637       -24.0178
   5   1.9502      -0.687648       -18.7118
   6   1.9502      -0.687648       -18.7118
   7   1.0381      -0.206195        -5.6109
   8   1.0381      -0.206195        -5.6109
   9   0.0406       0.666553        18.1378
  10   0.0105       1.313412        35.7398
  11   0.0105       1.313413        35.7398
  12   0.0017       2.264297        61.6147
  13   0.0005       2.453830        66.7721
  14   0.0000       0.510688        13.8965
  15   0.0000       0.643170        17.5015
  16   0.0000       0.643170        17.5015
  17   0.0000       0.891286        24.2531
  18   0.0000       1.084104        29.5000

MULLIKEN ATOMIC CHARGES AND SPIN DENSITIES
------------------------------------------
   0 O :    0.000000    0.500000
   1 O :   -0.000000    0.500000
Sum of atomic charges       :   -0.0000000

LOEWDIN ATOMIC CHARGES AND SPIN DENSITIES
-----------------------------------------
   0 O :    0.000000    0.500000
   1 O :   -0.000000    0.500000

  Mayer bond orders larger than 0.100000
B(  0-O ,  1-O ) :   1.3291

FINAL SINGLE POINT ENERGY      -149.788379111586

DIPOLE MOMENT
-------------

Method             : CASSCF/ALL STATES AVERAGE
Type of density    : Electron Density
Level              : Unrelaxed density
State              :  -1
Multiplicity       :  -1
Irrep              :   0
Energy             :  -149.7883791115856980 Eh
Basis              : AO
                                X                 Y                 Z
Electronic contribution:      0.000000039      -0.000000059      -0.000000000
Nuclear contribution   :      0.000000000       0.000000000       0.000000000
                        -----------------------------------------
Total Dipole Moment    :      0.000000039      -0.000000059      -0.000000000
                        -----------------------------------------
Magnitude (a.u.)       :      0.000000070
Magnitude (Debye)      :      0.000000179

Rotational constants in cm-1:             0.000000             1.449384             1.449384
Rotational constants in MHz :             0.000000         43451.442843         43451.442843

                             ****ORCA TERMINATED NORMALLY****
TOTAL RUN TIME: 0 days 0 hours 3 minutes 56 seconds 174 msec
