                         Program Version 5.0  -  CURRENT   -
|  1> ! DKH2 DKH-def2-TZVP keepfock moread
|  2>
|  3> %moinp "combined.gbw"
|  4>
|  5> %pal
|  6>   nprocs 20
|  7> end
|  8>
|  9> %scf
| 10>   rotate
| 11>     {18, 88, 90}
| 12>     {19, 89, 90}
| 13>     {20, 90, 90}
| 14>     {21, 91, 90}
| 15>     {22, 92, 90}
| 16>   end
| 17> end
| 18>
| 19> %casscf
| 20>   nel 3
| 21>   norb 5
| 22>   mult 4,2
| 23>   nroots 10,40
| 24>   intorbs locorbs
| 25>   actorbs locorbs
| 26>   extorbs locorbs
| 27>   locmet pm
| 28>   rel
| 29>     dosoc true
| 30>     gtensor true
| 31>   end
| 32> end
| 33>
| 34> %basis
| 35>   NewGTO Mo "SARC-DKH-TZVP" end
| 36> end
| 37>
| 38> * xyz 0 2
| 39> Mo 0.000000 0.000000 0.000000
| 40> N 0.000000 -0.000000 2.216533
| 41> N -0.285171 0.004718 -2.279534
| 42> N 2.004311 0.474895 0.316334
| 43> N -0.518640 -1.927117 0.328953
| 44> N -1.436837 1.399372 0.350965
| 45> C 2.970024 0.928749 -0.594152
| 46> C -0.581237 -2.365423 1.743326
| 47> C -0.830393 -1.164002 2.652054
| 48> C -0.582721 1.300275 2.658544
| 49> C -1.760506 1.681705 1.765676
| 50> C -2.297164 2.076237 -0.555955
| 51> C -1.863288 3.517436 -0.893714
| 52> C 2.318314 0.721784 1.731216
| 53> C 1.427336 -0.143035 2.619678
| 54> C -0.748254 -2.988987 -0.591353
| 55> C -2.225153 -3.401980 -0.777574
| 56> C 4.230037 0.039526 -0.716681
| 57> H 3.306753 1.968583 -0.362264
| 58> H -0.884911 1.257688 3.734853
| 59> H 0.214347 2.063803 2.551589
| 60> H -1.987450 2.762476 1.926932
| 61> H -2.688755 1.130205 2.070077
| 62> H 1.560266 0.116824 3.699429
| 63> H 1.702564 -1.208656 2.481159
| 64> H -1.891664 -0.853055 2.556872
| 65> H -0.634431 -1.411885 3.724765
| 66> H -1.396483 -3.106776 1.917960
| 67> H 0.368415 -2.890826 2.024018
| 68> H -1.174880 0.491053 -2.522161
| 69> H 0.462152 0.518729 -2.788176
| 70> H -0.336996 -0.936202 -2.722830
| 71> H 2.201169 1.801001 2.006636
| 72> H 3.382951 0.463776 1.952892
| 73> H 2.515735 0.996716 -1.600586
| 74> H -3.345231 2.108265 -0.176930
| 75> H -2.372707 1.512731 -1.505640
| 76> H -0.168591 -3.895865 -0.302868
| 77> H -0.343914 -2.702078 -1.579029
| 78> H -2.820366 -2.544804 -1.127277
| 79> H -2.321620 -4.218722 -1.511452
| 80> H -2.669196 -3.751571 0.166806
| 81> H -1.822879 4.142017 0.011595
| 82> H -0.857324 3.512842 -1.339810
| 83> H -2.563100 3.993966 -1.599621
| 84> H 4.935889 0.454691 -1.454255
| 85> H 4.763546 -0.040601 0.242620
| 86> H 3.947836 -0.976362 -1.030904
| 87> *
| 88>
| 89>                          ****END OF INPUT****

CARTESIAN COORDINATES (ANGSTROEM)
---------------------------------
  Mo     0.000000    0.000000    0.000000
  N      0.000000   -0.000000    2.216533
  N     -0.285171    0.004718   -2.279534
  N      2.004311    0.474895    0.316334
  N     -0.518640   -1.927117    0.328953
  N     -1.436837    1.399372    0.350965
  C      2.970024    0.928749   -0.594152
  C     -0.581237   -2.365423    1.743326
  C     -0.830393   -1.164002    2.652054
  C     -0.582721    1.300275    2.658544
  C     -1.760506    1.681705    1.765676
  C     -2.297164    2.076237   -0.555955
  C     -1.863288    3.517436   -0.893714
  C      2.318314    0.721784    1.731216
  C      1.427336   -0.143035    2.619678
  C     -0.748254   -2.988987   -0.591353
  C     -2.225153   -3.401980   -0.777574
  C      4.230037    0.039526   -0.716681
  H      3.306753    1.968583   -0.362264
  H     -0.884911    1.257688    3.734853
  H      0.214347    2.063803    2.551589
  H     -1.987450    2.762476    1.926932
  H     -2.688755    1.130205    2.070077
  H      1.560266    0.116824    3.699429
  H      1.702564   -1.208656    2.481159
  H     -1.891664   -0.853055    2.556872
  H     -0.634431   -1.411885    3.724765
  H     -1.396483   -3.106776    1.917960
  H      0.368415   -2.890826    2.024018
  H     -1.174880    0.491053   -2.522161
  H      0.462152    0.518729   -2.788176
  H     -0.336996   -0.936202   -2.722830
  H      2.201169    1.801001    2.006636
  H      3.382951    0.463776    1.952892
  H      2.515735    0.996716   -1.600586
  H     -3.345231    2.108265   -0.176930
  H     -2.372707    1.512731   -1.505640
  H     -0.168591   -3.895865   -0.302868
  H     -0.343914   -2.702078   -1.579029
  H     -2.820366   -2.544804   -1.127277
  H     -2.321620   -4.218722   -1.511452
  H     -2.669196   -3.751571    0.166806
  H     -1.822879    4.142017    0.011595
  H     -0.857324    3.512842   -1.339810
  H     -2.563100    3.993966   -1.599621
  H      4.935889    0.454691   -1.454255
  H      4.763546   -0.040601    0.242620
  H      3.947836   -0.976362   -1.030904

 Total Charge           Charge          ....    0
 Multiplicity           Mult            ....    2
 Number of Electrons    NEL             ....  179
 Basis Dimension        Dim             ....  801

ORBITAL ENERGIES
----------------

  NO   OCC          E(Eh)            E(eV)
   0   2.0000      -2.634817       -71.6970
   1   2.0000     -14.799786      -402.7227
   2   2.0000      -2.724809       -74.1458
   3   2.0000     -14.775966      -402.0745
   4   2.0000     -12.074082      -328.5525
   5   2.0000    -126.646576     -3446.2285
   6   2.0000     -10.145777      -276.0806
   7   2.0000      -2.729956       -74.2859
   8   2.0000     -12.073576      -328.5387
   9   2.0000      -2.092942       -56.9519
  10   2.0000     -16.017198      -435.8501
  11   2.0000     -11.579221      -315.0866
  12   2.0000     -15.335484      -417.2997
  13   2.0000     -15.484182      -421.3460
  14   2.0000     -95.133149     -2588.7046
  15   2.0000     -94.943277     -2583.5379
  16   2.0000     -93.725709     -2550.4062
  17   2.0000    -710.600763    -19336.4298
  18   2.0000     -15.386830      -418.6969
  19   2.0000      -0.827533       -22.5183
  20   2.0000     -15.529816      -422.5878
  21   2.0000      -0.752933       -20.4884
  22   2.0000     -15.354574      -417.8192
  23   2.0000      -0.807844       -21.9825
  24   2.0000     -15.399636      -419.0454
  25   2.0000      -0.816128       -22.2080
  26   2.0000     -15.378319      -418.4653
  27   2.0000      -0.832993       -22.6669
  28   2.0000     -11.185100      -304.3620
  29   2.0000     -11.198550      -304.7280
  30   2.0000     -11.220128      -305.3152
  31   2.0000     -11.219978      -305.3111
  32   2.0000     -11.199172      -304.7450
  33   2.0000     -11.195748      -304.6518
  34   2.0000     -11.160285      -303.6868
  35   2.0000     -11.194076      -304.6063
  36   2.0000     -11.217332      -305.2391
  37   2.0000     -11.193035      -304.5780
  38   2.0000     -11.159952      -303.6777
  39   2.0000     -11.151896      -303.4585
  40   2.0000      -0.391813       -10.6618
  41   2.0000      -0.385087       -10.4787
  42   2.0000      -0.386787       -10.5250
  43   2.0000      -0.787098       -21.4180
  44   2.0000      -0.731592       -19.9076
  45   2.0000      -0.799454       -21.7543
  46   2.0000      -0.723491       -19.6872
  47   2.0000      -0.802451       -21.8358
  48   2.0000      -0.734116       -19.9763
  49   2.0000      -0.724088       -19.7034
  50   2.0000      -0.778860       -21.1939
  51   2.0000      -0.693536       -18.8721
  52   2.0000      -0.738039       -20.0830
  53   2.0000      -0.803276       -21.8583
  54   2.0000      -0.720209       -19.5979
  55   2.0000      -0.775019       -21.0894
  56   2.0000      -0.690475       -18.7888
  57   2.0000      -0.682455       -18.5705
  58   2.0000      -0.627516       -17.0756
  59   2.0000      -0.671900       -18.2833
  60   2.0000      -0.669994       -18.2315
  61   2.0000      -0.650407       -17.6985
  62   2.0000      -0.641111       -17.4455
  63   2.0000      -0.669555       -18.2195
  64   2.0000      -0.667208       -18.1557
  65   2.0000      -0.668637       -18.1945
  66   2.0000      -0.672209       -18.2917
  67   2.0000      -0.650794       -17.7090
  68   2.0000      -0.639957       -17.4141
  69   2.0000      -0.827286       -22.5116
  70   2.0000      -0.828363       -22.5409
  71   2.0000      -0.828772       -22.5520
  72   2.0000      -0.639469       -17.4008
  73   2.0000      -0.642413       -17.4810
  74   2.0000      -0.642297       -17.4778
  75   2.0000      -0.638759       -17.3815
  76   2.0000      -0.653905       -17.7937
  77   2.0000      -0.635980       -17.3059
  78   2.0000      -0.651038       -17.7156
  79   2.0000      -0.637514       -17.3476
  80   2.0000      -0.646571       -17.5941
  81   2.0000      -0.639908       -17.4128
  82   2.0000      -0.640162       -17.4197
  83   2.0000      -0.638237       -17.3673
  84   2.0000      -0.647813       -17.6279
  85   2.0000      -0.637952       -17.3595
  86   2.0000      -0.632772       -17.2186
  87   2.0000      -0.629732       -17.1359
  88   0.6000       0.015718         0.4277
  89   0.6000       0.014615         0.3977
  90   0.6000       0.110916         3.0182
  91   0.6000       0.111112         3.0235
  92   0.6000       0.116450         3.1688
  93   0.0000       1.707423        46.4613
  94   0.0000       1.677959        45.6596
  95   0.0000       1.612463        43.8774
  96   0.0000      13.249866       360.5472
  97   0.0000       0.713918        19.4267

MULLIKEN ATOMIC CHARGES AND SPIN DENSITIES
------------------------------------------
   0 Mo:    2.114430    1.753911
   1 N :   -0.363016    0.018117
   2 N :   -0.798722    0.009267
   3 N :   -0.779789    0.045973
   4 N :   -0.781907    0.055862
   5 N :   -0.782469    0.052683
   6 C :   -0.040793    0.004500
   7 C :   -0.097362    0.003455
   8 C :   -0.103075    0.001633
   9 C :   -0.111793    0.001818
  10 C :   -0.089275    0.002760
  11 C :   -0.069241    0.005129
  12 C :   -0.302697    0.000996
  13 C :   -0.085849    0.002967
  14 C :   -0.099234    0.001113
  15 C :   -0.070741    0.005140
  16 C :   -0.307992    0.001117
  17 C :   -0.312148    0.001093
  18 H :    0.058386    0.002174
  19 H :    0.106005    0.001033
  20 H :    0.112510   -0.000069
  21 H :    0.088439    0.001398
  22 H :    0.079061    0.001936
  23 H :    0.103192    0.000906
  24 H :    0.114402    0.000058
  25 H :    0.112743    0.000028
  26 H :    0.105355    0.000980
  27 H :    0.088830    0.001349
  28 H :    0.081970    0.001927
  29 H :    0.279735    0.002818
  30 H :    0.284814    0.002570
  31 H :    0.280715    0.003197
  32 H :    0.073088    0.001983
  33 H :    0.084156    0.001120
  34 H :    0.012247    0.000470
  35 H :    0.072908    0.002137
  36 H :    0.007940    0.001043
  37 H :    0.070939    0.002259
  38 H :    0.019477    0.000764
  39 H :    0.088498    0.000197
  40 H :    0.098617    0.000560
  41 H :    0.097091   -0.000003
  42 H :    0.098687    0.000025
  43 H :    0.087063    0.000333
  44 H :    0.097593    0.000537
  45 H :    0.091430    0.000570
  46 H :    0.093093    0.000012
  47 H :    0.092687    0.000153
Sum of atomic charges       :    0.0000000

LOEWDIN ATOMIC CHARGES AND SPIN DENSITIES
-----------------------------------------
   0 Mo:    0.708312    1.664855
   1 N :    0.074067    0.032515
   2 N :   -0.239674    0.031322
   3 N :   -0.162570    0.051518
   4 N :   -0.167489    0.058822
   5 N :   -0.166219    0.057406
   6 C :   -0.374810    0.010021
   7 C :   -0.294273    0.009319
   8 C :   -0.234176    0.004418
   9 C :   -0.236401    0.004533
  10 C :   -0.297837    0.009104
  11 C :   -0.363508    0.010291
  12 C :   -0.298963    0.001850
  13 C :   -0.302478    0.008269
  14 C :   -0.236995    0.004338
  15 C :   -0.360575    0.010631
  16 C :   -0.299562    0.001827
  17 C :   -0.299431    0.001790
  18 H :    0.107855    0.001183
  19 H :    0.123470    0.000763
  20 H :    0.138619    0.000283
  21 H :    0.117606    0.001044
  22 H :    0.108816    0.001037
  23 H :    0.122582    0.000693
  24 H :    0.140739    0.000206
  25 H :    0.139471    0.000198
  26 H :    0.122946    0.000729
  27 H :    0.118145    0.001043
  28 H :    0.109945    0.001018
  29 H :    0.168075    0.003357
  30 H :    0.168881    0.003439
  31 H :    0.167806    0.003561
  32 H :    0.107384    0.000890
  33 H :    0.117650    0.000961
  34 H :    0.102938    0.000987
  35 H :    0.113835    0.001283
  36 H :    0.098569    0.000816
  37 H :    0.112394    0.001362
  38 H :    0.101933    0.000879
  39 H :    0.104676    0.000097
  40 H :    0.104302    0.000295
  41 H :    0.106178    0.000066
  42 H :    0.107629    0.000069
  43 H :    0.104806    0.000155
  44 H :    0.103493    0.000287
  45 H :    0.102416    0.000306
  46 H :    0.104180    0.000063
  47 H :    0.105243    0.000102

  Mayer bond orders larger than 0.100000
B(  0-Mo,  3-N ) :   0.2644 B(  0-Mo,  4-N ) :   0.2505 B(  0-Mo,  5-N ) :   0.2417
B(  1-N ,  8-C ) :   0.9186 B(  1-N ,  9-C ) :   0.9225 B(  1-N , 14-C ) :   0.9265
B(  2-N , 29-H ) :   0.9068 B(  2-N , 30-H ) :   0.9087 B(  2-N , 31-H ) :   0.9080
B(  3-N ,  6-C ) :   0.9797 B(  3-N , 13-C ) :   0.9839 B(  4-N ,  7-C ) :   0.9620
B(  4-N , 15-C ) :   0.9747 B(  5-N , 10-C ) :   0.9605 B(  5-N , 11-C ) :   0.9699
B(  6-C , 17-C ) :   0.9694 B(  6-C , 18-H ) :   0.9860 B(  6-C , 34-H ) :   0.9919
B(  7-C ,  8-C ) :   1.0014 B(  7-C , 27-H ) :   0.9850 B(  7-C , 28-H ) :   0.9836
B(  8-C , 25-H ) :   0.9752 B(  8-C , 26-H ) :   0.9878 B(  9-C , 10-C ) :   1.0014
B(  9-C , 19-H ) :   0.9881 B(  9-C , 20-H ) :   0.9745 B( 10-C , 21-H ) :   0.9843
B( 10-C , 22-H ) :   0.9830 B( 11-C , 12-C ) :   0.9627 B( 11-C , 35-H ) :   0.9897
B( 11-C , 36-H ) :   0.9972 B( 12-C , 42-H ) :   0.9869 B( 12-C , 43-H ) :   0.9812
B( 12-C , 44-H ) :   0.9924 B( 13-C , 14-C ) :   0.9992 B( 13-C , 32-H ) :   0.9799
B( 13-C , 33-H ) :   0.9830 B( 14-C , 23-H ) :   0.9886 B( 14-C , 24-H ) :   0.9726
B( 15-C , 16-C ) :   0.9600 B( 15-C , 37-H ) :   0.9906 B( 15-C , 38-H ) :   0.9991
B( 16-C , 39-H ) :   0.9824 B( 16-C , 40-H ) :   0.9914 B( 16-C , 41-H ) :   0.9868
B( 17-C , 45-H ) :   0.9907 B( 17-C , 46-H ) :   0.9874 B( 17-C , 47-H ) :   0.9835

FINAL SINGLE POINT ENERGY     -4790.061889008501

DIPOLE MOMENT
-------------
                                X             Y             Z
Electronic contribution:      0.31014      -0.56069      -2.99137
Nuclear contribution   :     -0.68622       0.58518       2.32308
                        -----------------------------------------
Total Dipole Moment    :     -0.37607       0.02449      -0.66829
                        -----------------------------------------
Magnitude (a.u.)       :      0.76723
Magnitude (Debye)      :      1.95014

Rotational constants in cm-1:     0.011582     0.011080     0.009673
Rotational constants in MHz :   347.213527   332.180003   289.981014

                             ****ORCA TERMINATED NORMALLY****
TOTAL RUN TIME: 0 days 8 hours 51 minutes 52 seconds 893 msec
