                         Program Version 6.0.x  -  CURRENT   -
|  1> ! def2-TZVP def2-TZVP/C moread
|  2>
|  3> %moinp "CASSCF.gbw"
|  4>
|  5> %maxcore 4000
|  6>
|  7> %pal
|  8>   nprocs 4
|  9> end
| 10>
| 11> %casscf
| 12>   nel 8
| 13>   norb 10
| 14>   mult 3,1
| 15>   nroots 1,3
| 16>   maxiter 1
| 17> end
| 18>
| 19> %mrci
| 20>   newblock 3 *
| 21>     excitations none
| 22>     refs cas(8,10) end
| 23>     nroots 1
| 24>   end
| 25>   newblock 1 *
| 26>     excitations none
| 27>     refs cas(8,10) end
| 28>     nroots 3
| 29>   end
| 30>   tsel 0.0
| 31>   tpre 0.0
| 32>   etol 1e-10
| 33>   rtol 1e-10
| 34>   soc
| 35>     dosoc true
| 36>     dossc true
| 37>   end
| 38> end
| 39>
| 40>
| 41> *xyz 0 3
| 42> O 0.0 0.0 0.0
| 43> O 0.0 0.0 1.2058
| 44> *
| 45>
| 46>                          ****END OF INPUT****

CARTESIAN COORDINATES (ANGSTROEM)
---------------------------------
  O      0.000000    0.000000    0.000000
  O      0.000000    0.000000    1.205800

 Total Charge           Charge          ....    0
 Multiplicity           Mult            ....    3
 Number of Electrons    NEL             ....   16
 Basis Dimension        Dim             ....   62

ORBITAL ENERGIES
----------------

  NO   OCC          E(Eh)            E(eV)
   0   2.0000     -20.695466      -563.1523
   1   2.0000     -20.694771      -563.1333
   2   2.0000      -1.471169       -40.0325
   3   2.0000      -1.087492       -29.5922
   4   1.9596      -0.882637       -24.0178
   5   1.9502      -0.687648       -18.7118
   6   1.9502      -0.687648       -18.7118
   7   1.0381      -0.206195        -5.6109
   8   1.0381      -0.206195        -5.6109
   9   0.0406       0.666553        18.1378
  10   0.0105       1.313412        35.7398
  11   0.0105       1.313413        35.7398
  12   0.0017       2.264297        61.6147
  13   0.0005       2.453830        66.7721
  14   0.0000       0.510688        13.8965
  15   0.0000       0.643170        17.5015
  16   0.0000       0.643170        17.5015
  17   0.0000       0.891286        24.2531
  18   0.0000       1.084104        29.5000

MULLIKEN ATOMIC CHARGES AND SPIN DENSITIES
------------------------------------------
   0 O :   -0.000000    1.000000
   1 O :    0.000000    1.000000
Sum of atomic charges       :    0.0000000

LOEWDIN ATOMIC CHARGES AND SPIN DENSITIES
-----------------------------------------
   0 O :   -0.000000    1.000000
   1 O :    0.000000    1.000000

  Mayer bond orders larger than 0.100000
B(  0-O ,  1-O ) :   1.6500

--------------------------------------------------------------------------------------------------------
      SOC CORRECTED ABSORPTION SPECTRUM VIA TRANSITION ELECTRIC DIPOLE MOMENTS
--------------------------------------------------------------------------------------------------------
      Transition         Energy     Energy  Wavelength fosc(D2)      D2       |DX|      |DY|      |DZ|
                          (eV)      (cm-1)    (nm)  (*population)  (au**2)    (au)      (au)      (au)
--------------------------------------------------------------------------------------------------------
  1-3.0A  ->  2-3.0A    0.000000       0.0     0.0   0.000000000   0.00000   0.00000   0.00000   0.00000
  0-3.0A  ->  1-3.0A    0.000467       3.8  2655076.9   0.000000000   0.00000   0.00000   0.00000   0.00000
  0-3.0A  ->  2-3.0A    0.000467       3.8  2655076.7   0.000000000   0.00000   0.00000   0.00000   0.00000
  2-3.0A  ->  3-1.0A    1.125572    9078.3  1101.5   0.000000000   0.00000   0.00000   0.00000   0.00000
  1-3.0A  ->  3-1.0A    1.125572    9078.3  1101.5   0.000000000   0.00000   0.00000   0.00000   0.00000
  2-3.0A  ->  4-1.0A    1.125572    9078.3  1101.5   0.000000000   0.00000   0.00000   0.00000   0.00000
  1-3.0A  ->  4-1.0A    1.125572    9078.3  1101.5   0.000000000   0.00000   0.00000   0.00000   0.00000
  0-3.0A  ->  3-1.0A    1.126039    9082.1  1101.1   0.000000000   0.00000   0.00000   0.00000   0.00000
  0-3.0A  ->  4-1.0A    1.126039    9082.1  1101.1   0.000000000   0.00000   0.00000   0.00000   0.00000
  2-3.0A  ->  5-1.0A    2.036798   16427.9   608.7   0.000000000   0.00000   0.00000   0.00000   0.00000
  1-3.0A  ->  5-1.0A    2.036798   16427.9   608.7   0.000000000   0.00000   0.00000   0.00000   0.00000
  0-3.0A  ->  5-1.0A    2.037265   16431.6   608.6   0.000000000   0.00000   0.00000   0.00000   0.00000

FINAL SINGLE POINT ENERGY      -149.814641785086

DIPOLE MOMENT
-------------

Method             : MRCI
Type of density    : Electron Density
Level              : Unrelaxed density
State              :   2
Multiplicity       :   1
Irrep              :   0
Energy             :     0.0000000000000000 Eh
Basis              : AO
                                X                 Y                 Z
Electronic contribution:      0.000000046      -0.000000068       0.000000000
Nuclear contribution   :      0.000000000       0.000000000       0.000000000
                        -----------------------------------------
Total Dipole Moment    :      0.000000046      -0.000000068       0.000000000
                        -----------------------------------------
Magnitude (a.u.)       :      0.000000082
Magnitude (Debye)      :      0.000000208

Rotational constants in cm-1:             0.000000             1.449384             1.449384
Rotational constants in MHz :             0.000000         43451.442843         43451.442843

                             ****ORCA TERMINATED NORMALLY****
TOTAL RUN TIME: 0 days 0 hours 2 minutes 11 seconds 891 msec
