                         Program Version 5.0  -  CURRENT   -
|  1> ! DKH2 DKH-def2-TZVP BP UKS
|  2>
|  3> %pal
|  4>   nprocs 12
|  5> end
|  6>
|  7> * xyz -3 1
|  8> N 0.000000 -0.000000 2.216533
|  9> N -0.285171 0.004718 -2.279534
| 10> N 2.004311 0.474895 0.316334
| 11> N -0.518640 -1.927117 0.328953
| 12> N -1.436837 1.399372 0.350965
| 13> C 2.970024 0.928749 -0.594152
| 14> C -0.581237 -2.365423 1.743326
| 15> C -0.830393 -1.164002 2.652054
| 16> C -0.582721 1.300275 2.658544
| 17> C -1.760506 1.681705 1.765676
| 18> C -2.297164 2.076237 -0.555955
| 19> C -1.863288 3.517436 -0.893714
| 20> C 2.318314 0.721784 1.731216
| 21> C 1.427336 -0.143035 2.619678
| 22> C -0.748254 -2.988987 -0.591353
| 23> C -2.225153 -3.401980 -0.777574
| 24> C 4.230037 0.039526 -0.716681
| 25> H 3.306753 1.968583 -0.362264
| 26> H -0.884911 1.257688 3.734853
| 27> H 0.214347 2.063803 2.551589
| 28> H -1.987450 2.762476 1.926932
| 29> H -2.688755 1.130205 2.070077
| 30> H 1.560266 0.116824 3.699429
| 31> H 1.702564 -1.208656 2.481159
| 32> H -1.891664 -0.853055 2.556872
| 33> H -0.634431 -1.411885 3.724765
| 34> H -1.396483 -3.106776 1.917960
| 35> H 0.368415 -2.890826 2.024018
| 36> H -1.174880 0.491053 -2.522161
| 37> H 0.462152 0.518729 -2.788176
| 38> H -0.336996 -0.936202 -2.722830
| 39> H 2.201169 1.801001 2.006636
| 40> H 3.382951 0.463776 1.952892
| 41> H 2.515735 0.996716 -1.600586
| 42> H -3.345231 2.108265 -0.176930
| 43> H -2.372707 1.512731 -1.505640
| 44> H -0.168591 -3.895865 -0.302868
| 45> H -0.343914 -2.702078 -1.579029
| 46> H -2.820366 -2.544804 -1.127277
| 47> H -2.321620 -4.218722 -1.511452
| 48> H -2.669196 -3.751571 0.166806
| 49> H -1.822879 4.142017 0.011595
| 50> H -0.857324 3.512842 -1.339810
| 51> H -2.563100 3.993966 -1.599621
| 52> H 4.935889 0.454691 -1.454255
| 53> H 4.763546 -0.040601 0.242620
| 54> H 3.947836 -0.976362 -1.030904
| 55> *
| 56>
| 57>                          ****END OF INPUT****

CARTESIAN COORDINATES (ANGSTROEM)
---------------------------------
  N      0.000000   -0.000000    2.216533
  N     -0.285171    0.004718   -2.279534
  N      2.004311    0.474895    0.316334
  N     -0.518640   -1.927117    0.328953
  N     -1.436837    1.399372    0.350965
  C      2.970024    0.928749   -0.594152
  C     -0.581237   -2.365423    1.743326
  C     -0.830393   -1.164002    2.652054
  C     -0.582721    1.300275    2.658544
  C     -1.760506    1.681705    1.765676
  C     -2.297164    2.076237   -0.555955
  C     -1.863288    3.517436   -0.893714
  C      2.318314    0.721784    1.731216
  C      1.427336   -0.143035    2.619678
  C     -0.748254   -2.988987   -0.591353
  C     -2.225153   -3.401980   -0.777574
  C      4.230037    0.039526   -0.716681
  H      3.306753    1.968583   -0.362264
  H     -0.884911    1.257688    3.734853
  H      0.214347    2.063803    2.551589
  H     -1.987450    2.762476    1.926932
  H     -2.688755    1.130205    2.070077
  H      1.560266    0.116824    3.699429
  H      1.702564   -1.208656    2.481159
  H     -1.891664   -0.853055    2.556872
  H     -0.634431   -1.411885    3.724765
  H     -1.396483   -3.106776    1.917960
  H      0.368415   -2.890826    2.024018
  H     -1.174880    0.491053   -2.522161
  H      0.462152    0.518729   -2.788176
  H     -0.336996   -0.936202   -2.722830
  H      2.201169    1.801001    2.006636
  H      3.382951    0.463776    1.952892
  H      2.515735    0.996716   -1.600586
  H     -3.345231    2.108265   -0.176930
  H     -2.372707    1.512731   -1.505640
  H     -0.168591   -3.895865   -0.302868
  H     -0.343914   -2.702078   -1.579029
  H     -2.820366   -2.544804   -1.127277
  H     -2.321620   -4.218722   -1.511452
  H     -2.669196   -3.751571    0.166806
  H     -1.822879    4.142017    0.011595
  H     -0.857324    3.512842   -1.339810
  H     -2.563100    3.993966   -1.599621
  H      4.935889    0.454691   -1.454255
  H      4.763546   -0.040601    0.242620
  H      3.947836   -0.976362   -1.030904

 Total Charge           Charge          ....   -3
 Multiplicity           Mult            ....    1
 Number of Electrons    NEL             ....  140
 Basis Dimension        Dim             ....  724

ORBITAL ENERGIES
----------------
                 SPIN UP ORBITALS
  NO   OCC          E(Eh)            E(eV)
   0   1.0000     -13.632923      -370.9707
   1   1.0000     -13.624895      -370.7522
   2   1.0000     -13.532513      -368.2384
   3   1.0000     -13.530870      -368.1937
   4   1.0000     -13.528852      -368.1388
   5   1.0000      -9.557762      -260.0799
   6   1.0000      -9.557760      -260.0799
   7   1.0000      -9.556180      -260.0369
   8   1.0000      -9.546340      -259.7691
   9   1.0000      -9.546182      -259.7648
  10   1.0000      -9.545733      -259.7526
  11   1.0000      -9.543363      -259.6881
  12   1.0000      -9.540918      -259.6216
  13   1.0000      -9.540887      -259.6207
  14   1.0000      -9.540415      -259.6079
  15   1.0000      -9.539137      -259.5731
  16   1.0000      -9.539034      -259.5703
  17   1.0000      -0.457179       -12.4405
  18   1.0000      -0.411459       -11.1964
  19   1.0000      -0.388813       -10.5801
  20   1.0000      -0.386592       -10.5197
  21   1.0000      -0.379581       -10.3289
  22   1.0000      -0.317679        -8.6445
  23   1.0000      -0.316798        -8.6205
  24   1.0000      -0.295897        -8.0518
  25   1.0000      -0.265411        -7.2222
  26   1.0000      -0.264756        -7.2044
  27   1.0000      -0.230287        -6.2664
  28   1.0000      -0.183138        -4.9834
  29   1.0000      -0.182524        -4.9667
  30   1.0000      -0.156092        -4.2475
  31   1.0000      -0.126582        -3.4445
  32   1.0000      -0.123474        -3.3599
  33   1.0000      -0.101515        -2.7624
  34   1.0000      -0.059907        -1.6302
  35   1.0000      -0.056417        -1.5352
  36   1.0000      -0.052812        -1.4371
  37   1.0000      -0.051707        -1.4070
  38   1.0000      -0.046898        -1.2762
  39   1.0000      -0.036542        -0.9944
  40   1.0000      -0.034808        -0.9472
  41   1.0000      -0.033114        -0.9011
  42   1.0000      -0.027492        -0.7481
  43   1.0000      -0.025887        -0.7044
  44   1.0000      -0.024075        -0.6551
  45   1.0000      -0.009057        -0.2465
  46   1.0000      -0.007698        -0.2095
  47   1.0000       0.016653         0.4531
  48   1.0000       0.026135         0.7112
  49   1.0000       0.026523         0.7217
  50   1.0000       0.028283         0.7696
  51   1.0000       0.033061         0.8996
  52   1.0000       0.035001         0.9524
  53   1.0000       0.037472         1.0197
  54   1.0000       0.048424         1.3177
  55   1.0000       0.050199         1.3660
  56   1.0000       0.055988         1.5235
  57   1.0000       0.077411         2.1065
  58   1.0000       0.078694         2.1414
  59   1.0000       0.080512         2.1909
  60   1.0000       0.089940         2.4474
  61   1.0000       0.091361         2.4860
  62   1.0000       0.144860         3.9419
  63   1.0000       0.193053         5.2532
  64   1.0000       0.229618         6.2482
  65   1.0000       0.230220         6.2646
  66   1.0000       0.233730         6.3601
  67   1.0000       0.268442         7.3047
  68   1.0000       0.270435         7.3589
  69   1.0000       0.275636         7.5004
  70   0.0000       0.321069         8.7367
  71   0.0000       0.333250         9.0682
  72   0.0000       0.333947         9.0871
  73   0.0000       0.339767         9.2455
  74   0.0000       0.349497         9.5103

                 SPIN DOWN ORBITALS
  NO   OCC          E(Eh)            E(eV)
   0   1.0000     -13.632923      -370.9707
   1   1.0000     -13.624895      -370.7522
   2   1.0000     -13.532513      -368.2384
   3   1.0000     -13.530870      -368.1937
   4   1.0000     -13.528852      -368.1388
   5   1.0000      -9.557762      -260.0799
   6   1.0000      -9.557760      -260.0799
   7   1.0000      -9.556180      -260.0369
   8   1.0000      -9.546340      -259.7691
   9   1.0000      -9.546182      -259.7648
  10   1.0000      -9.545733      -259.7526
  11   1.0000      -9.543363      -259.6881
  12   1.0000      -9.540918      -259.6216
  13   1.0000      -9.540887      -259.6207
  14   1.0000      -9.540415      -259.6079
  15   1.0000      -9.539137      -259.5731
  16   1.0000      -9.539034      -259.5703
  17   1.0000      -0.457179       -12.4405
  18   1.0000      -0.411459       -11.1964
  19   1.0000      -0.388813       -10.5801
  20   1.0000      -0.386592       -10.5197
  21   1.0000      -0.379581       -10.3289
  22   1.0000      -0.317679        -8.6445
  23   1.0000      -0.316798        -8.6205
  24   1.0000      -0.295897        -8.0518
  25   1.0000      -0.265411        -7.2222
  26   1.0000      -0.264756        -7.2044
  27   1.0000      -0.230287        -6.2664
  28   1.0000      -0.183138        -4.9834
  29   1.0000      -0.182524        -4.9667
  30   1.0000      -0.156092        -4.2475
  31   1.0000      -0.126582        -3.4445
  32   1.0000      -0.123474        -3.3599
  33   1.0000      -0.101515        -2.7624
  34   1.0000      -0.059907        -1.6302
  35   1.0000      -0.056417        -1.5352
  36   1.0000      -0.052812        -1.4371
  37   1.0000      -0.051707        -1.4070
  38   1.0000      -0.046898        -1.2762
  39   1.0000      -0.036542        -0.9944
  40   1.0000      -0.034808        -0.9472
  41   1.0000      -0.033114        -0.9011
  42   1.0000      -0.027492        -0.7481
  43   1.0000      -0.025887        -0.7044
  44   1.0000      -0.024075        -0.6551
  45   1.0000      -0.009057        -0.2465
  46   1.0000      -0.007698        -0.2095
  47   1.0000       0.016653         0.4531
  48   1.0000       0.026135         0.7112
  49   1.0000       0.026523         0.7217
  50   1.0000       0.028283         0.7696
  51   1.0000       0.033061         0.8996
  52   1.0000       0.035001         0.9524
  53   1.0000       0.037472         1.0197
  54   1.0000       0.048424         1.3177
  55   1.0000       0.050199         1.3660
  56   1.0000       0.055988         1.5235
  57   1.0000       0.077411         2.1065
  58   1.0000       0.078694         2.1414
  59   1.0000       0.080512         2.1909
  60   1.0000       0.089940         2.4474
  61   1.0000       0.091361         2.4860
  62   1.0000       0.144860         3.9419
  63   1.0000       0.193053         5.2532
  64   1.0000       0.229618         6.2482
  65   1.0000       0.230220         6.2646
  66   1.0000       0.233730         6.3601
  67   1.0000       0.268442         7.3047
  68   1.0000       0.270435         7.3589
  69   1.0000       0.275636         7.5004
  70   0.0000       0.321069         8.7367
  71   0.0000       0.333250         9.0682
  72   0.0000       0.333947         9.0871
  73   0.0000       0.339767         9.2455
  74   0.0000       0.349497         9.5103

MULLIKEN ATOMIC CHARGES AND SPIN POPULATIONS
--------------------------------------------
   0 N :    0.041362    0.000000
   1 N :   -0.493143    0.000000
   2 N :   -0.322968    0.000000
   3 N :   -0.311776    0.000000
   4 N :   -0.325967    0.000000
   5 C :   -0.013653    0.000000
   6 C :    0.107736    0.000000
   7 C :   -0.001451    0.000000
   8 C :    0.000418    0.000000
   9 C :    0.117092    0.000000
  10 C :   -0.003515    0.000000
  11 C :   -0.045395    0.000000
  12 C :    0.102222    0.000000
  13 C :    0.012053    0.000000
  14 C :   -0.026726    0.000000
  15 C :   -0.042228    0.000000
  16 C :   -0.043649    0.000000
  17 H :   -0.191853    0.000000
  18 H :   -0.148838    0.000000
  19 H :    0.030762    0.000000
  20 H :   -0.104266    0.000000
  21 H :   -0.110783    0.000000
  22 H :   -0.151293    0.000000
  23 H :    0.033187    0.000000
  24 H :    0.035476    0.000000
  25 H :   -0.151877    0.000000
  26 H :   -0.099262    0.000000
  27 H :   -0.114037    0.000000
  28 H :    0.140888    0.000000
  29 H :    0.148873    0.000000
  30 H :    0.138678    0.000000
  31 H :   -0.105789    0.000000
  32 H :   -0.110045    0.000000
  33 H :   -0.011897    0.000000
  34 H :   -0.191848    0.000000
  35 H :   -0.039569    0.000000
  36 H :   -0.197150    0.000000
  37 H :   -0.011461    0.000000
  38 H :    0.024939    0.000000
  39 H :   -0.225339    0.000000
  40 H :    0.024202    0.000000
  41 H :    0.021556    0.000000
  42 H :    0.041388    0.000000
  43 H :   -0.231198    0.000000
  44 H :   -0.223350    0.000000
  45 H :    0.025795    0.000000
  46 H :    0.003698    0.000000
Sum of atomic charges         :   -3.0000000

LOEWDIN ATOMIC CHARGES AND SPIN POPULATIONS
-------------------------------------------
   0 N :    0.145405    0.000000
   1 N :   -0.350407    0.000000
   2 N :   -0.096231    0.000000
   3 N :   -0.101567    0.000000
   4 N :   -0.103015    0.000000
   5 C :   -0.474836    0.000000
   6 C :   -0.386866    0.000000
   7 C :   -0.309869    0.000000
   8 C :   -0.311849    0.000000
   9 C :   -0.388517    0.000000
  10 C :   -0.467739    0.000000
  11 C :   -0.386282    0.000000
  12 C :   -0.386277    0.000000
  13 C :   -0.310955    0.000000
  14 C :   -0.467503    0.000000
  15 C :   -0.388317    0.000000
  16 C :   -0.390613    0.000000
  17 H :    0.036241    0.000000
  18 H :    0.061468    0.000000
  19 H :    0.120037    0.000000
  20 H :    0.064109    0.000000
  21 H :    0.054901    0.000000
  22 H :    0.060792    0.000000
  23 H :    0.123724    0.000000
  24 H :    0.122774    0.000000
  25 H :    0.060225    0.000000
  26 H :    0.065780    0.000000
  27 H :    0.054777    0.000000
  28 H :    0.104571    0.000000
  29 H :    0.104912    0.000000
  30 H :    0.102278    0.000000
  31 H :    0.057954    0.000000
  32 H :    0.064060    0.000000
  33 H :    0.095150    0.000000
  34 H :    0.041562    0.000000
  35 H :    0.086896    0.000000
  36 H :    0.037768    0.000000
  37 H :    0.093870    0.000000
  38 H :    0.089858    0.000000
  39 H :    0.010459    0.000000
  40 H :    0.087824    0.000000
  41 H :    0.089137    0.000000
  42 H :    0.094359    0.000000
  43 H :    0.008398    0.000000
  44 H :    0.010579    0.000000
  45 H :    0.087313    0.000000
  46 H :    0.083661    0.000000

  Mayer bond orders larger than 0.100000
B(  0-N ,  7-C ) :   0.9870 B(  0-N ,  8-C ) :   0.9863 B(  0-N , 13-C ) :   0.9838
B(  1-N , 28-H ) :   0.9442 B(  1-N , 29-H ) :   0.9511 B(  1-N , 30-H ) :   0.9474
B(  2-N ,  5-C ) :   1.2951 B(  2-N , 12-C ) :   0.9662 B(  2-N , 16-C ) :  -0.3482
B(  2-N , 17-H ) :   0.1838 B(  2-N , 44-H ) :   0.2625 B(  2-N , 46-H ) :   0.1282
B(  3-N ,  6-C ) :   0.9390 B(  3-N , 14-C ) :   1.2267 B(  3-N , 15-C ) :  -0.3443
B(  3-N , 36-H ) :   0.1944 B(  3-N , 38-H ) :   0.1183 B(  3-N , 39-H ) :   0.2661
B(  4-N ,  9-C ) :   0.9296 B(  4-N , 10-C ) :   1.1996 B(  4-N , 11-C ) :  -0.3368
B(  4-N , 34-H ) :   0.1998 B(  4-N , 42-H ) :   0.1032 B(  4-N , 43-H ) :   0.2708
B(  5-C , 12-C ) :   0.1172 B(  5-C , 16-C ) :   0.8084 B(  5-C , 17-H ) :   0.7919
B(  5-C , 33-H ) :   0.9661 B(  6-C ,  7-C ) :   1.0672 B(  6-C , 14-C ) :   0.1283
B(  6-C , 26-H ) :   0.8259 B(  6-C , 27-H ) :   0.7669 B(  7-C , 24-H ) :   0.9313
B(  7-C , 25-H ) :   0.8071 B(  8-C ,  9-C ) :   1.0688 B(  8-C , 18-H ) :   0.8100
B(  8-C , 19-H ) :   0.9282 B(  9-C , 10-C ) :   0.1268 B(  9-C , 20-H ) :   0.8225
B(  9-C , 21-H ) :   0.7699 B( 10-C , 11-C ) :   0.8166 B( 10-C , 34-H ) :   0.7885
B( 10-C , 35-H ) :   0.9536 B( 11-C , 41-H ) :   0.9482 B( 11-C , 42-H ) :   0.9468
B( 11-C , 43-H ) :   0.7250 B( 12-C , 13-C ) :   1.0688 B( 12-C , 31-H ) :   0.7783
B( 12-C , 32-H ) :   0.8117 B( 13-C , 22-H ) :   0.8044 B( 13-C , 23-H ) :   0.9291
B( 14-C , 15-C ) :   0.8000 B( 14-C , 36-H ) :   0.7854 B( 14-C , 37-H ) :   0.9746
B( 15-C , 38-H ) :   0.9352 B( 15-C , 39-H ) :   0.7332 B( 15-C , 40-H ) :   0.9509
B( 16-C , 17-H ) :  -0.1023 B( 16-C , 44-H ) :   0.7393 B( 16-C , 45-H ) :   0.9542
B( 16-C , 46-H ) :   0.9252

FINAL SINGLE POINT ENERGY      -749.187802483334

DIPOLE MOMENT
-------------
                                X             Y             Z
Electronic contribution:      0.26504      -0.36101       7.30209
Nuclear contribution   :     -0.45393       0.42042      -6.25597
                        -----------------------------------------
Total Dipole Moment    :     -0.18889       0.05940       1.04612
                        -----------------------------------------
Magnitude (a.u.)       :      1.06469
Magnitude (Debye)      :      2.70624

Rotational constants in cm-1:     0.011742     0.011227     0.009673
Rotational constants in MHz :   352.016585   336.573005   289.984892

                             ****ORCA TERMINATED NORMALLY****
TOTAL RUN TIME: 0 days 0 hours 1 minutes 16 seconds 424 msec
