                         Program Version 5.0  -  CURRENT   -
|  1> ! DKH2 SARC-DKH-TZVP
|  2>
|  3> %pal
|  4>   nprocs 12
|  5> end
|  6>
|  7> %casscf
|  8>   nel 3
|  9>   norb 5
| 10>   mult 4,2
| 11>   nroots 10,40
| 12>   maxiter 1
| 13>   intorbs unchanged
| 14>   actorbs unchanged
| 15>   extorbs unchanged
| 16> end
| 17>
| 18> * xyz 3 2
| 19> Mo 0.000000 0.000000 0.000000
| 20> *
| 21>
| 22>                          ****END OF INPUT****

CARTESIAN COORDINATES (ANGSTROEM)
---------------------------------
  Mo     0.000000    0.000000    0.000000

 Total Charge           Charge          ....    3
 Multiplicity           Mult            ....    2
 Number of Electrons    NEL             ....   39
 Basis Dimension        Dim             ....   77

ORBITAL ENERGIES
----------------

  NO   OCC          E(Eh)            E(eV)
   0   2.0000    -740.854073    -20159.6642
   1   2.0000    -109.198130     -2971.4322
   2   2.0000     -97.675572     -2657.8874
   3   2.0000     -97.676195     -2657.9044
   4   2.0000     -97.675448     -2657.8841
   5   2.0000     -21.323209      -580.2340
   6   2.0000     -17.426752      -474.2060
   7   2.0000     -17.428783      -474.2613
   8   2.0000     -17.424608      -474.1477
   9   2.0000     -11.073670      -301.3299
  10   2.0000     -11.072480      -301.2975
  11   2.0000     -11.074616      -301.3556
  12   2.0000     -11.073637      -301.3290
  13   2.0000     -11.077174      -301.4252
  14   2.0000      -4.527650      -123.2036
  15   2.0000      -3.306800       -89.9826
  16   2.0000      -3.310344       -90.0790
  17   2.0000      -3.308001       -90.0153
  18   0.6000      -0.910833       -24.7850
  19   0.6000      -1.266580       -34.4654
  20   0.6000      -1.270020       -34.5590
  21   0.6000      -1.267474       -34.4897
  22   0.6000      -1.273713       -34.6595
  23   0.0000      -1.150946       -31.3188
  24   0.0000      -0.598091       -16.2749
  25   0.0000      -0.602008       -16.3815
  26   0.0000      -0.601704       -16.3732
  27   0.0000      -0.435732       -11.8569

MULLIKEN ATOMIC CHARGES AND SPIN DENSITIES
------------------------------------------
   0 Mo:    3.000000    2.000000
Sum of atomic charges       :    3.0000000

LOEWDIN ATOMIC CHARGES AND SPIN DENSITIES
-----------------------------------------
   0 Mo:    3.000000    2.000000

FINAL SINGLE POINT ENERGY     -4043.214009965538

DIPOLE MOMENT
-------------
                                X             Y             Z
Electronic contribution:      0.00000       0.00000       0.00000
Nuclear contribution   :      0.00000       0.00000       0.00000
                        -----------------------------------------
Total Dipole Moment    :      0.00000       0.00000       0.00000
                        -----------------------------------------
Magnitude (a.u.)       :      0.00000
Magnitude (Debye)      :      0.00000

Rotational constants in cm-1:     0.000000     0.000000     0.000000
Rotational constants in MHz :     0.000000     0.000000     0.000000

                             ****ORCA TERMINATED NORMALLY****
TOTAL RUN TIME: 0 days 0 hours 0 minutes 6 seconds 157 msec
