                         Program Version 5.0  -  CURRENT   -
|  1> ! DKH2 DKH-def2-TZVP moread
|  2>
|  3> %moinp "casscf_3_2_loc_canon_rot.gbw"
|  4>
|  5> %maxcore 12000
|  6>
|  7> %pal
|  8>   nprocs 24
|  9> end
| 10>
| 11> %casscf
| 12>   nel 49
| 13>   norb 33
| 14>   mult 2
| 15>   nroots 2
| 16>   maxiter 1
| 17>   cistep ice
| 18>   ci
| 19>     icetype csfs
| 20>     tgen 1e-4
| 21>     tvar 1e-10
| 22>     csfciwithri 0
| 23>     cibufferlength 10000000
| 24>   end
| 25>   refs
| 26>     {2 2 2 2 2 2 2 2 2 2 2 2 2 2 2 2 2 2 2 2 2 2 2 2 1}
| 27>     {2 2 2 2 2 2 2 2 2 2 2 2 2 2 2 2 2 2 2 2 2 2 2 1 2}
| 28>   end
| 29>   rel
| 30>     dosoc true
| 31>     gtensor true
| 32>   end
| 33> end
| 34>
| 35> %basis
| 36>   NewGTO Mo "SARC-DKH-TZVP" end
| 37> end
| 38>
| 39> * xyz 0 2
| 40> Mo 0.000000 0.000000 0.000000
| 41> N 0.000000 -0.000000 2.216533
| 42> N -0.285171 0.004718 -2.279534
| 43> N 2.004311 0.474895 0.316334
| 44> N -0.518640 -1.927117 0.328953
| 45> N -1.436837 1.399372 0.350965
| 46> C 2.970024 0.928749 -0.594152
| 47> C -0.581237 -2.365423 1.743326
| 48> C -0.830393 -1.164002 2.652054
| 49> C -0.582721 1.300275 2.658544
| 50> C -1.760506 1.681705 1.765676
| 51> C -2.297164 2.076237 -0.555955
| 52> C -1.863288 3.517436 -0.893714
| 53> C 2.318314 0.721784 1.731216
| 54> C 1.427336 -0.143035 2.619678
| 55> C -0.748254 -2.988987 -0.591353
| 56> C -2.225153 -3.401980 -0.777574
| 57> C 4.230037 0.039526 -0.716681
| 58> H 3.306753 1.968583 -0.362264
| 59> H -0.884911 1.257688 3.734853
| 60> H 0.214347 2.063803 2.551589
| 61> H -1.987450 2.762476 1.926932
| 62> H -2.688755 1.130205 2.070077
| 63> H 1.560266 0.116824 3.699429
| 64> H 1.702564 -1.208656 2.481159
| 65> H -1.891664 -0.853055 2.556872
| 66> H -0.634431 -1.411885 3.724765
| 67> H -1.396483 -3.106776 1.917960
| 68> H 0.368415 -2.890826 2.024018
| 69> H -1.174880 0.491053 -2.522161
| 70> H 0.462152 0.518729 -2.788176
| 71> H -0.336996 -0.936202 -2.722830
| 72> H 2.201169 1.801001 2.006636
| 73> H 3.382951 0.463776 1.952892
| 74> H 2.515735 0.996716 -1.600586
| 75> H -3.345231 2.108265 -0.176930
| 76> H -2.372707 1.512731 -1.505640
| 77> H -0.168591 -3.895865 -0.302868
| 78> H -0.343914 -2.702078 -1.579029
| 79> H -2.820366 -2.544804 -1.127277
| 80> H -2.321620 -4.218722 -1.511452
| 81> H -2.669196 -3.751571 0.166806
| 82> H -1.822879 4.142017 0.011595
| 83> H -0.857324 3.512842 -1.339810
| 84> H -2.563100 3.993966 -1.599621
| 85> H 4.935889 0.454691 -1.454255
| 86> H 4.763546 -0.040601 0.242620
| 87> H 3.947836 -0.976362 -1.030904
| 88> *
| 89>
| 90>                          ****END OF INPUT****

CARTESIAN COORDINATES (ANGSTROEM)
---------------------------------
  Mo     0.000000    0.000000    0.000000
  N      0.000000   -0.000000    2.216533
  N     -0.285171    0.004718   -2.279534
  N      2.004311    0.474895    0.316334
  N     -0.518640   -1.927117    0.328953
  N     -1.436837    1.399372    0.350965
  C      2.970024    0.928749   -0.594152
  C     -0.581237   -2.365423    1.743326
  C     -0.830393   -1.164002    2.652054
  C     -0.582721    1.300275    2.658544
  C     -1.760506    1.681705    1.765676
  C     -2.297164    2.076237   -0.555955
  C     -1.863288    3.517436   -0.893714
  C      2.318314    0.721784    1.731216
  C      1.427336   -0.143035    2.619678
  C     -0.748254   -2.988987   -0.591353
  C     -2.225153   -3.401980   -0.777574
  C      4.230037    0.039526   -0.716681
  H      3.306753    1.968583   -0.362264
  H     -0.884911    1.257688    3.734853
  H      0.214347    2.063803    2.551589
  H     -1.987450    2.762476    1.926932
  H     -2.688755    1.130205    2.070077
  H      1.560266    0.116824    3.699429
  H      1.702564   -1.208656    2.481159
  H     -1.891664   -0.853055    2.556872
  H     -0.634431   -1.411885    3.724765
  H     -1.396483   -3.106776    1.917960
  H      0.368415   -2.890826    2.024018
  H     -1.174880    0.491053   -2.522161
  H      0.462152    0.518729   -2.788176
  H     -0.336996   -0.936202   -2.722830
  H      2.201169    1.801001    2.006636
  H      3.382951    0.463776    1.952892
  H      2.515735    0.996716   -1.600586
  H     -3.345231    2.108265   -0.176930
  H     -2.372707    1.512731   -1.505640
  H     -0.168591   -3.895865   -0.302868
  H     -0.343914   -2.702078   -1.579029
  H     -2.820366   -2.544804   -1.127277
  H     -2.321620   -4.218722   -1.511452
  H     -2.669196   -3.751571    0.166806
  H     -1.822879    4.142017    0.011595
  H     -0.857324    3.512842   -1.339810
  H     -2.563100    3.993966   -1.599621
  H      4.935889    0.454691   -1.454255
  H      4.763546   -0.040601    0.242620
  H      3.947836   -0.976362   -1.030904

 Total Charge           Charge          ....    0
 Multiplicity           Mult            ....    2
 Number of Electrons    NEL             ....  179
 Basis Dimension        Dim             ....  801

ORBITAL ENERGIES
----------------

  NO   OCC          E(Eh)            E(eV)
   0   2.0000    -738.692146    -20100.8352
   1   2.0000    -107.137970     -2915.3724
   2   2.0000     -95.595495     -2601.2857
   3   2.0000     -95.599874     -2601.4048
   4   2.0000     -95.599823     -2601.4034
   5   2.0000     -19.429695      -528.7089
   6   2.0000     -15.533300      -422.6826
   7   2.0000     -15.550293      -423.1450
   8   2.0000     -15.550236      -423.1434
   9   2.0000      -0.667116       -18.1531
  10   2.0000      -0.672433       -18.2978
  11   2.0000      -0.655604       -17.8399
  12   2.0000      -0.643187       -17.5020
  13   2.0000      -0.641399       -17.4533
  14   2.0000      -0.646027       -17.5793
  15   2.0000      -1.744390       -47.4673
  16   2.0000      -1.743314       -47.4380
  17   2.0000      -1.742827       -47.4247
  18   2.0000     -15.390639      -418.8006
  19   2.0000      -0.636672       -17.3247
  20   2.0000     -15.511857      -422.0991
  21   2.0000      -0.643221       -17.5029
  22   2.0000     -15.386802      -418.6962
  23   2.0000      -0.651519       -17.7287
  24   2.0000     -15.437256      -420.0691
  25   2.0000      -0.639642       -17.4055
  26   2.0000     -15.415688      -419.4822
  27   2.0000      -0.647194       -17.6110
  28   2.0000     -11.186669      -304.4047
  29   2.0000     -11.202632      -304.8391
  30   2.0000     -11.217608      -305.2466
  31   2.0000     -11.217453      -305.2424
  32   2.0000     -11.203694      -304.8680
  33   2.0000     -11.199829      -304.7628
  34   2.0000     -11.162251      -303.7403
  35   2.0000     -11.196805      -304.6806
  36   2.0000     -11.213470      -305.1340
  37   2.0000     -11.196302      -304.6669
  38   2.0000     -11.162038      -303.7345
  39   2.0000     -11.153160      -303.4929
  40   2.0000      -0.637732       -17.3536
  41   2.0000      -0.647320       -17.6145
  42   2.0000      -0.642468       -17.4825
  43   2.0000      -0.642639       -17.4871
  44   2.0000      -0.637817       -17.3559
  45   2.0000      -0.795289       -21.6409
  46   2.0000      -0.722383       -19.6570
  47   2.0000      -0.798350       -21.7242
  48   2.0000      -0.648543       -17.6478
  49   2.0000      -0.723255       -19.6808
  50   2.0000      -0.638002       -17.3609
  51   2.0000      -0.696177       -18.9439
  52   2.0000      -0.634545       -17.2669
  53   2.0000      -0.798612       -21.7313
  54   2.0000      -0.717838       -19.5334
  55   2.0000      -0.629409       -17.1271
  56   2.0000      -0.693008       -18.8577
  57   2.0000      -0.683885       -18.6095
  58   2.0000      -0.629561       -17.1312
  59   2.0000      -0.672185       -18.2911
  60   2.0000      -0.668087       -18.1796
  61   2.0000      -0.655453       -17.8358
  62   2.0000      -0.644932       -17.5495
  63   2.0000      -0.668951       -18.2031
  64   2.0000      -0.664412       -18.0796
  65   1.9995      -9.167657      -249.4646
  66   1.9995      -9.186032      -249.9647
  67   1.9996      -9.184977      -249.9359
  68   1.9995      -9.183892      -249.9064
  69   2.0000      -0.808747       -22.0071
  70   2.0000      -0.808487       -22.0001
  71   1.9999      -0.809990       -22.0410
  72   1.9995      -9.186579      -249.9795
  73   1.9991      -2.871194       -78.1292
  74   1.9985      -0.798755       -21.7352
  75   1.9990      -0.712394       -19.3852
  76   1.9976      -0.804704       -21.8971
  77   1.9970      -0.812782       -22.1169
  78   1.9973      -0.830843       -22.6084
  79   1.9958      -0.391796       -10.6613
  80   1.9951      -0.387314       -10.5393
  81   1.9953      -0.389510       -10.5991
  82   1.9994      -0.796310       -21.6687
  83   1.9993      -0.742428       -20.2025
  84   1.9994      -0.745349       -20.2820
  85   1.9994      -0.790983       -21.5237
  86   1.9994      -0.746612       -20.3164
  87   1.9993      -0.786523       -21.4024
  88   1.4789      -0.133779        -3.6403
  89   1.4802      -0.131897        -3.5891
  90   0.0305       0.236364         6.4318
  91   0.0294       0.239967         6.5298
  92   0.0104       0.326791         8.8924
  93   0.0005       7.817904       212.7360
  94   0.0005       7.826617       212.9731
  95   0.0004       7.943636       216.1573
  96   0.0004       7.955640       216.4840
  97   0.0004       8.077346       219.7958
  98   0.0000       0.917929        24.9781
  99   0.0000       1.116506        30.3817
 100   0.0000       1.159526        31.5523
 101   0.0000       1.189446        32.3665
 102   0.0000       1.217766        33.1371

MULLIKEN ATOMIC CHARGES AND SPIN DENSITIES
------------------------------------------
   0 Mo:    1.825507    1.009344
   1 N :   -0.354596   -0.000632
   2 N :   -0.797933   -0.000252
   3 N :   -0.705346   -0.007912
   4 N :   -0.691790   -0.009388
   5 N :   -0.699614   -0.008534
   6 C :   -0.039875    0.001409
   7 C :   -0.098646    0.001762
   8 C :   -0.102285    0.000594
   9 C :   -0.111038    0.000710
  10 C :   -0.090956    0.001533
  11 C :   -0.068628    0.001682
  12 C :   -0.301293    0.000008
  13 C :   -0.085771    0.001082
  14 C :   -0.099400    0.000636
  15 C :   -0.070125    0.001695
  16 C :   -0.306802    0.000142
  17 C :   -0.311214    0.000204
  18 H :    0.060268    0.000427
  19 H :    0.106863    0.000195
  20 H :    0.111950    0.000141
  21 H :    0.090227    0.000101
  22 H :    0.081237    0.000239
  23 H :    0.103520    0.000311
  24 H :    0.114071    0.000125
  25 H :    0.112283    0.000161
  26 H :    0.106341    0.000130
  27 H :    0.090537    0.000104
  28 H :    0.084114    0.000247
  29 H :    0.281587    0.000591
  30 H :    0.286694    0.000473
  31 H :    0.282583    0.000760
  32 H :    0.075329    0.000236
  33 H :    0.085549    0.000101
  34 H :    0.013196   -0.000053
  35 H :    0.074721    0.000412
  36 H :    0.009161    0.000123
  37 H :    0.072926    0.000410
  38 H :    0.020393    0.000087
  39 H :    0.088379    0.000131
  40 H :    0.099203    0.000060
  41 H :    0.097009    0.000029
  42 H :    0.098661    0.000021
  43 H :    0.087101    0.000143
  44 H :    0.098130    0.000065
  45 H :    0.092059    0.000048
  46 H :    0.093033    0.000026
  47 H :    0.092682    0.000070
Sum of atomic charges       :   -0.0000000

LOEWDIN ATOMIC CHARGES AND SPIN DENSITIES
-----------------------------------------
   0 Mo:    0.438541    0.948444
   1 N :    0.098051    0.005064
   2 N :   -0.227126    0.008716
   3 N :   -0.109596    0.004126
   4 N :   -0.106440    0.004366
   5 N :   -0.107226    0.004242
   6 C :   -0.369222    0.002343
   7 C :   -0.287434    0.001744
   8 C :   -0.232858    0.001571
   9 C :   -0.235203    0.001673
  10 C :   -0.290996    0.001622
  11 C :   -0.356599    0.001885
  12 C :   -0.297638    0.000396
  13 C :   -0.296119    0.001487
  14 C :   -0.236973    0.001981
  15 C :   -0.353938    0.002149
  16 C :   -0.298316    0.000410
  17 C :   -0.298242    0.000406
  18 H :    0.108780    0.000246
  19 H :    0.124200    0.000114
  20 H :    0.138748    0.000102
  21 H :    0.118901    0.000055
  22 H :    0.110028    0.000079
  23 H :    0.122979    0.000193
  24 H :    0.140766    0.000097
  25 H :    0.139541    0.000079
  26 H :    0.123728    0.000082
  27 H :    0.119414    0.000065
  28 H :    0.111124    0.000083
  29 H :    0.167814    0.001521
  30 H :    0.168668    0.001560
  31 H :    0.167736    0.001548
  32 H :    0.108463    0.000059
  33 H :    0.118787    0.000072
  34 H :    0.103265    0.000354
  35 H :    0.114935    0.000213
  36 H :    0.099306    0.000130
  37 H :    0.113594    0.000217
  38 H :    0.102565    0.000196
  39 H :    0.104686    0.000042
  40 H :    0.104566    0.000047
  41 H :    0.106244    0.000009
  42 H :    0.107707    0.000006
  43 H :    0.104834    0.000066
  44 H :    0.103741    0.000048
  45 H :    0.102713    0.000040
  46 H :    0.104230    0.000013
  47 H :    0.105273    0.000038

  Mayer bond orders larger than 0.100000
B(  0-Mo,  1-N ) :   0.2153 B(  0-Mo,  2-N ) :   0.1600 B(  0-Mo,  3-N ) :   0.4406
B(  0-Mo,  4-N ) :   0.4606 B(  0-Mo,  5-N ) :   0.4399 B(  1-N ,  8-C ) :   0.9166
B(  1-N ,  9-C ) :   0.9206 B(  1-N , 14-C ) :   0.9244 B(  2-N , 29-H ) :   0.9077
B(  2-N , 30-H ) :   0.9094 B(  2-N , 31-H ) :   0.9089 B(  3-N ,  6-C ) :   0.9734
B(  3-N , 13-C ) :   0.9812 B(  4-N ,  7-C ) :   0.9611 B(  4-N , 15-C ) :   0.9688
B(  5-N , 10-C ) :   0.9601 B(  5-N , 11-C ) :   0.9642 B(  6-C , 17-C ) :   0.9697
B(  6-C , 18-H ) :   0.9862 B(  6-C , 34-H ) :   0.9928 B(  7-C ,  8-C ) :   1.0023
B(  7-C , 27-H ) :   0.9860 B(  7-C , 28-H ) :   0.9842 B(  8-C , 25-H ) :   0.9751
B(  8-C , 26-H ) :   0.9882 B(  9-C , 10-C ) :   1.0022 B(  9-C , 19-H ) :   0.9883
B(  9-C , 20-H ) :   0.9745 B( 10-C , 21-H ) :   0.9853 B( 10-C , 22-H ) :   0.9837
B( 11-C , 12-C ) :   0.9631 B( 11-C , 35-H ) :   0.9899 B( 11-C , 36-H ) :   0.9984
B( 12-C , 42-H ) :   0.9869 B( 12-C , 43-H ) :   0.9812 B( 12-C , 44-H ) :   0.9926
B( 13-C , 14-C ) :   1.0000 B( 13-C , 32-H ) :   0.9805 B( 13-C , 33-H ) :   0.9840
B( 14-C , 23-H ) :   0.9888 B( 14-C , 24-H ) :   0.9727 B( 15-C , 16-C ) :   0.9605
B( 15-C , 37-H ) :   0.9907 B( 15-C , 38-H ) :   1.0001 B( 16-C , 39-H ) :   0.9824
B( 16-C , 40-H ) :   0.9917 B( 16-C , 41-H ) :   0.9868 B( 17-C , 45-H ) :   0.9910
B( 17-C , 46-H ) :   0.9874 B( 17-C , 47-H ) :   0.9835

FINAL SINGLE POINT ENERGY     -4790.283096855377

DIPOLE MOMENT
-------------
                                X             Y             Z
Electronic contribution:      0.25299      -0.55731      -2.68414
Nuclear contribution   :     -0.68622       0.58518       2.32308
                        -----------------------------------------
Total Dipole Moment    :     -0.43322       0.02788      -0.36106
                        -----------------------------------------
Magnitude (a.u.)       :      0.56464
Magnitude (Debye)      :      1.43521

Rotational constants in cm-1:     0.011582     0.011080     0.009673
Rotational constants in MHz :   347.213527   332.180003   289.981014

                             ****ORCA TERMINATED NORMALLY****
TOTAL RUN TIME: 0 days 1 hours 1 minutes 40 seconds 800 msec
